<?xml version="1.0" encoding="UTF-8"?>

<!-- generated on 10/28/20 20:39:10 by Eclipse SUMO GUI Version 1.5.0
<configuration xmlns:xsi="http://www.w3.org/2001/XMLSchema-instance" xsi:noNamespaceSchemaLocation="http://sumo.dlr.de/xsd/sumoConfiguration.xsd">

    <input>
        <net-file value="simulation/osm.net.xml"/>
        <route-files value="simulation/osm.rou.xml"/>
        <additional-files value="simulation/osm.det.xml"/>
    </input>

    <output>
        <summary-output value="summary.xml"/>
        <tripinfo-output value="tripinfoRL.xml"/>
    </output>

    <time>
        <begin value="0"/>
    </time>

    <processing>
        <no-internal-links value="true"/>
    </processing>

    <report>
        <verbose value="true"/>
        <no-step-log value="true"/>
    </report>

    <traci_server>
        <remote-port value="52350"/>
    </traci_server>

</configuration>
-->

<tripinfos xmlns:xsi="http://www.w3.org/2001/XMLSchema-instance" xsi:noNamespaceSchemaLocation="http://sumo.dlr.de/xsd/tripinfo_file.xsd">
    <tripinfo id="4220s4221s_2" depart="1.00" departLane="gneE10.441_0" departPos="5.10" departSpeed="0.00" departDelay="0.00" arrival="44.00" arrivalLane="620463733_0" arrivalPos="133.76" arrivalSpeed="16.57" duration="43.00" routeLength="431.72" waitingTime="4.00" waitingCount="1" stopTime="0.00" timeLoss="16.44" rerouteNo="0" devices="tripinfo_4220s4221s_2" vType="type1" speedFactor="1.01" vaporized=""/>
    <tripinfo id="south4220_12" depart="7.00" departLane="gneE10.441_0" departPos="5.10" departSpeed="0.00" departDelay="2.00" arrival="51.00" arrivalLane="gneE41_0" arrivalPos="453.36" arrivalSpeed="14.04" duration="44.00" routeLength="476.04" waitingTime="2.00" waitingCount="1" stopTime="0.00" timeLoss="11.12" rerouteNo="0" devices="tripinfo_south4220_12" vType="type1" speedFactor="1.05" vaporized=""/>
    <tripinfo id="south4220_45" depart="18.00" departLane="gneE10.441_0" departPos="5.10" departSpeed="0.00" departDelay="0.00" arrival="55.00" arrivalLane="gneE41_0" arrivalPos="453.36" arrivalSpeed="14.30" duration="37.00" routeLength="476.04" waitingTime="0.00" waitingCount="0" stopTime="0.00" timeLoss="5.03" rerouteNo="0" devices="tripinfo_south4220_45" vType="type1" speedFactor="1.09" vaporized=""/>
    <tripinfo id="se4235_25" depart="24.00" departLane="619523290#0_0" departPos="5.10" departSpeed="0.00" departDelay="13.00" arrival="56.00" arrivalLane="628341438#1_0" arrivalPos="36.44" arrivalSpeed="12.07" duration="32.00" routeLength="366.85" waitingTime="0.00" waitingCount="0" stopTime="0.00" timeLoss="5.75" rerouteNo="0" devices="tripinfo_se4235_25" vType="type1" speedFactor="0.87" vaporized=""/>
    <tripinfo id="nw4235_81" depart="34.00" departLane="-628341438#1_0" departPos="5.10" departSpeed="0.00" departDelay="0.00" arrival="56.00" arrivalLane="619523287#1_0" arrivalPos="83.27" arrivalSpeed="16.42" duration="22.00" routeLength="265.87" waitingTime="0.00" waitingCount="0" stopTime="0.00" timeLoss="4.74" rerouteNo="0" devices="tripinfo_nw4235_81" vType="type1" speedFactor="1.00" vaporized=""/>
    <tripinfo id="se4235_28" depart="25.00" departLane="619523290#0_0" departPos="5.10" departSpeed="0.00" departDelay="12.00" arrival="59.00" arrivalLane="628341438#1_0" arrivalPos="36.44" arrivalSpeed="15.55" duration="34.00" routeLength="366.85" waitingTime="0.00" waitingCount="0" stopTime="0.00" timeLoss="13.36" rerouteNo="0" devices="tripinfo_se4235_28" vType="type1" speedFactor="1.13" vaporized=""/>
    <tripinfo id="nw4235_83" depart="37.00" departLane="-628341438#1_0" departPos="5.10" departSpeed="0.00" departDelay="2.00" arrival="59.00" arrivalLane="619523287#1_0" arrivalPos="83.27" arrivalSpeed="14.95" duration="22.00" routeLength="265.87" waitingTime="0.00" waitingCount="0" stopTime="0.00" timeLoss="4.69" rerouteNo="0" devices="tripinfo_nw4235_83" vType="type1" speedFactor="0.97" vaporized=""/>
    <tripinfo id="4220s4219n_8" depart="5.00" departLane="gneE10.441_0" departPos="5.10" departSpeed="0.00" departDelay="2.00" arrival="60.00" arrivalLane="620377501#0_1" arrivalPos="20.24" arrivalSpeed="15.37" duration="55.00" routeLength="243.00" waitingTime="23.00" waitingCount="2" stopTime="0.00" timeLoss="39.08" rerouteNo="0" devices="tripinfo_4220s4219n_8" vType="type1" speedFactor="0.94" vaporized=""/>
    <tripinfo id="4220s4219n_5" depart="4.00" departLane="gneE10.441_0" departPos="5.10" departSpeed="0.00" departDelay="3.00" arrival="61.00" arrivalLane="620377501#0_0" arrivalPos="20.24" arrivalSpeed="13.57" duration="57.00" routeLength="243.00" waitingTime="26.00" waitingCount="2" stopTime="0.00" timeLoss="39.08" rerouteNo="0" devices="tripinfo_4220s4219n_5" vType="type1" speedFactor="0.83" vaporized=""/>
    <tripinfo id="north4219_31" depart="14.00" departLane="620377515_0" departPos="5.10" departSpeed="0.00" departDelay="0.00" arrival="66.00" arrivalLane="620377501#0_1" arrivalPos="20.24" arrivalSpeed="19.06" duration="52.00" routeLength="923.62" waitingTime="0.00" waitingCount="0" stopTime="0.00" timeLoss="13.72" rerouteNo="0" devices="tripinfo_north4219_31" vType="type1" speedFactor="1.15" vaporized=""/>
    <tripinfo id="north4219_11" depart="5.00" departLane="620377515_0" departPos="5.10" departSpeed="0.00" departDelay="0.00" arrival="67.00" arrivalLane="620377501#0_0" arrivalPos="20.24" arrivalSpeed="16.94" duration="62.00" routeLength="923.62" waitingTime="6.00" waitingCount="1" stopTime="0.00" timeLoss="18.33" rerouteNo="0" devices="tripinfo_north4219_11" vType="type1" speedFactor="1.03" vaporized=""/>
    <tripinfo id="north4219_42" depart="17.00" departLane="620377515_0" departPos="5.10" departSpeed="0.00" departDelay="0.00" arrival="68.00" arrivalLane="620377501#0_1" arrivalPos="20.24" arrivalSpeed="16.94" duration="51.00" routeLength="923.62" waitingTime="0.00" waitingCount="0" stopTime="0.00" timeLoss="10.65" rerouteNo="0" devices="tripinfo_north4219_42" vType="type1" speedFactor="1.09" vaporized=""/>
    <tripinfo id="south4219_15" depart="6.00" departLane="620377506_0" departPos="5.10" departSpeed="0.00" departDelay="0.00" arrival="71.00" arrivalLane="547625725_0" arrivalPos="73.62" arrivalSpeed="20.02" duration="65.00" routeLength="808.30" waitingTime="0.00" waitingCount="0" stopTime="0.00" timeLoss="13.21" rerouteNo="0" devices="tripinfo_south4219_15" vType="type1" speedFactor="0.93" vaporized=""/>
    <tripinfo id="north4221_6" depart="2.00" departLane="-620463733_0" departPos="5.10" departSpeed="0.00" departDelay="0.00" arrival="72.00" arrivalLane="28594060#4_0" arrivalPos="123.22" arrivalSpeed="17.35" duration="70.00" routeLength="885.44" waitingTime="5.00" waitingCount="1" stopTime="0.00" timeLoss="20.64" rerouteNo="0" devices="tripinfo_north4221_6" vType="type1" speedFactor="1.05" vaporized=""/>
    <tripinfo id="south4219_19" depart="9.00" departLane="620377506_0" departPos="5.10" departSpeed="0.00" departDelay="2.00" arrival="72.00" arrivalLane="547625725_0" arrivalPos="73.62" arrivalSpeed="15.87" duration="63.00" routeLength="808.30" waitingTime="7.00" waitingCount="1" stopTime="0.00" timeLoss="21.93" rerouteNo="0" devices="tripinfo_south4219_19" vType="type1" speedFactor="1.16" vaporized=""/>
    <tripinfo id="4220s4221e_61" depart="25.00" departLane="gneE10.441_0" departPos="5.10" departSpeed="0.00" departDelay="0.00" arrival="73.00" arrivalLane="28573015#6_0" arrivalPos="68.82" arrivalSpeed="18.08" duration="48.00" routeLength="523.65" waitingTime="6.00" waitingCount="1" stopTime="0.00" timeLoss="19.20" rerouteNo="0" devices="tripinfo_4220s4221e_61" vType="type1" speedFactor="1.12" vaporized=""/>
    <tripinfo id="north4221_21" depart="11.00" departLane="-620463733_0" departPos="5.10" departSpeed="0.00" departDelay="3.00" arrival="75.00" arrivalLane="28594060#4_0" arrivalPos="123.22" arrivalSpeed="16.12" duration="64.00" routeLength="885.44" waitingTime="0.00" waitingCount="0" stopTime="0.00" timeLoss="12.95" rerouteNo="0" devices="tripinfo_north4221_21" vType="type1" speedFactor="1.01" vaporized=""/>
    <tripinfo id="north4219_57" depart="29.00" departLane="620377515_0" departPos="5.10" departSpeed="0.00" departDelay="5.00" arrival="75.00" arrivalLane="620377501#0_1" arrivalPos="20.24" arrivalSpeed="18.57" duration="46.00" routeLength="923.62" waitingTime="0.00" waitingCount="0" stopTime="0.00" timeLoss="7.23" rerouteNo="0" devices="tripinfo_north4219_57" vType="type1" speedFactor="1.14" vaporized=""/>
    <tripinfo id="north4219_47" depart="20.00" departLane="620377515_0" departPos="5.10" departSpeed="0.00" departDelay="1.00" arrival="76.00" arrivalLane="620377501#0_0" arrivalPos="20.24" arrivalSpeed="14.84" duration="56.00" routeLength="923.62" waitingTime="0.00" waitingCount="0" stopTime="0.00" timeLoss="6.52" rerouteNo="0" devices="tripinfo_north4219_47" vType="type1" speedFactor="0.90" vaporized=""/>
    <tripinfo id="north4219_54" depart="26.00" departLane="620377515_0" departPos="5.10" departSpeed="0.00" departDelay="3.00" arrival="77.00" arrivalLane="620377501#0_1" arrivalPos="20.24" arrivalSpeed="15.91" duration="51.00" routeLength="923.62" waitingTime="0.00" waitingCount="0" stopTime="0.00" timeLoss="6.47" rerouteNo="0" devices="tripinfo_north4219_54" vType="type1" speedFactor="1.00" vaporized=""/>
    <tripinfo id="north4221_22" depart="14.00" departLane="-620463733_0" departPos="5.10" departSpeed="0.00" departDelay="5.00" arrival="78.00" arrivalLane="28594060#4_1" arrivalPos="123.22" arrivalSpeed="15.92" duration="64.00" routeLength="885.44" waitingTime="0.00" waitingCount="0" stopTime="0.00" timeLoss="10.86" rerouteNo="0" devices="tripinfo_north4221_22" vType="type1" speedFactor="0.98" vaporized=""/>
    <tripinfo id="north4221_9" depart="5.00" departLane="-620463733_0" departPos="5.10" departSpeed="0.00" departDelay="1.00" arrival="79.00" arrivalLane="28594060#4_0" arrivalPos="123.22" arrivalSpeed="13.07" duration="74.00" routeLength="885.44" waitingTime="0.00" waitingCount="0" stopTime="0.00" timeLoss="13.75" rerouteNo="0" devices="tripinfo_north4221_9" vType="type1" speedFactor="0.86" vaporized=""/>
    <tripinfo id="south4221_0" depart="0.00" departLane="-28594060#4_0" departPos="5.10" departSpeed="0.00" departDelay="0.00" arrival="80.00" arrivalLane="620463733_0" arrivalPos="133.76" arrivalSpeed="17.47" duration="80.00" routeLength="875.34" waitingTime="19.00" waitingCount="1" stopTime="0.00" timeLoss="30.26" rerouteNo="0" devices="tripinfo_south4221_0" vType="type1" speedFactor="1.06" vaporized=""/>
    <tripinfo id="north4221_16" depart="8.00" departLane="-620463733_0" departPos="5.10" departSpeed="0.00" departDelay="2.00" arrival="80.00" arrivalLane="28594060#4_0" arrivalPos="123.22" arrivalSpeed="13.34" duration="72.00" routeLength="885.44" waitingTime="0.00" waitingCount="0" stopTime="0.00" timeLoss="13.40" rerouteNo="0" devices="tripinfo_north4221_16" vType="type1" speedFactor="0.88" vaporized=""/>
    <tripinfo id="4220s4235w_52" depart="21.00" departLane="gneE10.441_0" departPos="5.10" departSpeed="0.00" departDelay="0.00" arrival="81.00" arrivalLane="619523287#1_0" arrivalPos="83.27" arrivalSpeed="16.59" duration="60.00" routeLength="513.12" waitingTime="11.00" waitingCount="2" stopTime="0.00" timeLoss="28.60" rerouteNo="0" devices="tripinfo_4220s4235w_52" vType="type1" speedFactor="1.02" vaporized=""/>
    <tripinfo id="north4219_48" depart="23.00" departLane="620377515_0" departPos="5.10" departSpeed="0.00" departDelay="3.00" arrival="82.00" arrivalLane="620377501#0_0" arrivalPos="20.24" arrivalSpeed="14.36" duration="59.00" routeLength="923.62" waitingTime="0.00" waitingCount="0" stopTime="0.00" timeLoss="8.28" rerouteNo="0" devices="tripinfo_north4219_48" vType="type1" speedFactor="0.88" vaporized=""/>
    <tripinfo id="4235e4219s_13" depart="12.00" departLane="619523290#0_0" departPos="5.10" departSpeed="0.00" departDelay="7.00" arrival="85.00" arrivalLane="547625725_0" arrivalPos="73.62" arrivalSpeed="17.86" duration="73.00" routeLength="687.48" waitingTime="24.00" waitingCount="1" stopTime="0.00" timeLoss="37.13" rerouteNo="0" devices="tripinfo_4235e4219s_13" vType="type1" speedFactor="1.12" vaporized=""/>
    <tripinfo id="4235e4219s_33" depart="32.00" departLane="619523290#0_0" departPos="5.10" departSpeed="0.00" departDelay="18.00" arrival="85.00" arrivalLane="547625725_1" arrivalPos="73.62" arrivalSpeed="18.31" duration="53.00" routeLength="687.48" waitingTime="3.00" waitingCount="1" stopTime="0.00" timeLoss="18.66" rerouteNo="0" devices="tripinfo_4235e4219s_33" vType="type1" speedFactor="1.17" vaporized=""/>
    <tripinfo id="4235e4219n_1" depart="0.00" departLane="619523290#0_0" departPos="5.10" departSpeed="0.00" departDelay="0.00" arrival="88.00" arrivalLane="620377501#0_0" arrivalPos="20.24" arrivalSpeed="14.49" duration="88.00" routeLength="724.98" waitingTime="29.00" waitingCount="1" stopTime="0.00" timeLoss="40.77" rerouteNo="0" devices="tripinfo_4235e4219n_1" vType="type1" speedFactor="0.94" vaporized=""/>
    <tripinfo id="4235e4219n_17" depart="15.00" departLane="619523290#0_0" departPos="5.10" departSpeed="0.00" departDelay="9.00" arrival="88.00" arrivalLane="620377501#0_1" arrivalPos="20.24" arrivalSpeed="15.17" duration="73.00" routeLength="724.98" waitingTime="11.00" waitingCount="2" stopTime="0.00" timeLoss="25.94" rerouteNo="0" devices="tripinfo_4235e4219n_17" vType="type1" speedFactor="0.94" vaporized=""/>
    <tripinfo id="4220s4221n_70" depart="29.00" departLane="gneE10.441_0" departPos="5.10" departSpeed="0.00" departDelay="0.00" arrival="88.00" arrivalLane="28594060#4_0" arrivalPos="123.22" arrivalSpeed="16.84" duration="59.00" routeLength="731.01" waitingTime="2.00" waitingCount="1" stopTime="0.00" timeLoss="15.12" rerouteNo="0" devices="tripinfo_4220s4221n_70" vType="type1" speedFactor="1.02" vaporized=""/>
    <tripinfo id="north4221_24" depart="17.00" departLane="-620463733_0" departPos="5.10" departSpeed="0.00" departDelay="7.00" arrival="90.00" arrivalLane="28594060#4_0" arrivalPos="123.22" arrivalSpeed="12.65" duration="73.00" routeLength="885.44" waitingTime="0.00" waitingCount="0" stopTime="0.00" timeLoss="9.75" rerouteNo="0" devices="tripinfo_north4221_24" vType="type1" speedFactor="0.83" vaporized=""/>
    <tripinfo id="4220s4219n_27" depart="11.00" departLane="gneE10.441_0" departPos="5.10" departSpeed="0.00" departDelay="0.00" arrival="96.00" arrivalLane="620377501#0_0" arrivalPos="20.24" arrivalSpeed="14.91" duration="85.00" routeLength="243.00" waitingTime="48.00" waitingCount="3" stopTime="0.00" timeLoss="69.00" rerouteNo="0" devices="tripinfo_4220s4219n_27" vType="type1" speedFactor="0.95" vaporized=""/>
    <tripinfo id="4220s4219n_68" depart="28.00" departLane="gneE10.441_0" departPos="5.10" departSpeed="0.00" departDelay="0.00" arrival="96.00" arrivalLane="620377501#0_1" arrivalPos="20.24" arrivalSpeed="17.11" duration="68.00" routeLength="243.00" waitingTime="37.00" waitingCount="2" stopTime="0.00" timeLoss="52.98" rerouteNo="0" devices="tripinfo_4220s4219n_68" vType="type1" speedFactor="1.04" vaporized=""/>
    <tripinfo id="nw4235_138" depart="62.00" departLane="-628341438#1_0" departPos="5.10" departSpeed="0.00" departDelay="0.00" arrival="96.00" arrivalLane="619523287#1_0" arrivalPos="83.27" arrivalSpeed="15.47" duration="34.00" routeLength="265.87" waitingTime="6.00" waitingCount="1" stopTime="0.00" timeLoss="16.47" rerouteNo="0" devices="tripinfo_nw4235_138" vType="type1" speedFactor="1.00" vaporized=""/>
    <tripinfo id="south4219_43" depart="19.00" departLane="620377506_0" departPos="5.10" departSpeed="0.00" departDelay="2.00" arrival="99.00" arrivalLane="547625725_1" arrivalPos="73.62" arrivalSpeed="18.51" duration="80.00" routeLength="808.30" waitingTime="20.00" waitingCount="1" stopTime="0.00" timeLoss="33.92" rerouteNo="0" devices="tripinfo_south4219_43" vType="type1" speedFactor="1.04" vaporized=""/>
    <tripinfo id="south4220_99" depart="45.00" departLane="gneE10.441_0" departPos="5.10" departSpeed="0.00" departDelay="1.00" arrival="99.00" arrivalLane="gneE41_0" arrivalPos="453.36" arrivalSpeed="14.89" duration="54.00" routeLength="476.04" waitingTime="14.00" waitingCount="1" stopTime="0.00" timeLoss="22.71" rerouteNo="0" devices="tripinfo_south4220_99" vType="type1" speedFactor="1.10" vaporized=""/>
    <tripinfo id="south4219_38" depart="16.00" departLane="620377506_0" departPos="5.10" departSpeed="0.00" departDelay="0.00" arrival="100.00" arrivalLane="547625725_0" arrivalPos="73.62" arrivalSpeed="19.67" duration="84.00" routeLength="808.30" waitingTime="23.00" waitingCount="1" stopTime="0.00" timeLoss="40.28" rerouteNo="0" devices="tripinfo_south4219_38" vType="type1" speedFactor="1.10" vaporized=""/>
    <tripinfo id="4235e4219n_30" depart="26.00" departLane="619523290#0_0" departPos="5.10" departSpeed="0.00" departDelay="13.00" arrival="101.00" arrivalLane="620377501#0_1" arrivalPos="20.24" arrivalSpeed="19.38" duration="75.00" routeLength="724.98" waitingTime="17.00" waitingCount="2" stopTime="0.00" timeLoss="37.80" rerouteNo="0" devices="tripinfo_4235e4219n_30" vType="type1" speedFactor="1.18" vaporized=""/>
    <tripinfo id="4220s4221s_130" depart="70.00" departLane="gneE10.441_0" departPos="5.10" departSpeed="0.00" departDelay="13.00" arrival="101.00" arrivalLane="620463733_0" arrivalPos="133.76" arrivalSpeed="16.45" duration="31.00" routeLength="431.72" waitingTime="0.00" waitingCount="0" stopTime="0.00" timeLoss="4.69" rerouteNo="0" devices="tripinfo_4220s4221s_130" vType="type1" speedFactor="1.03" vaporized=""/>
    <tripinfo id="4235e4219n_20" depart="18.00" departLane="619523290#0_0" departPos="5.10" departSpeed="0.00" departDelay="11.00" arrival="102.00" arrivalLane="620377501#0_0" arrivalPos="20.24" arrivalSpeed="15.98" duration="84.00" routeLength="724.98" waitingTime="20.00" waitingCount="2" stopTime="0.00" timeLoss="40.91" rerouteNo="0" devices="tripinfo_4235e4219n_20" vType="type1" speedFactor="1.02" vaporized=""/>
    <tripinfo id="north4221_29" depart="23.00" departLane="-620463733_0" departPos="5.10" departSpeed="0.00" departDelay="10.00" arrival="102.00" arrivalLane="28594060#4_0" arrivalPos="123.22" arrivalSpeed="15.34" duration="79.00" routeLength="885.44" waitingTime="9.00" waitingCount="1" stopTime="0.00" timeLoss="23.85" rerouteNo="0" devices="tripinfo_north4221_29" vType="type1" speedFactor="0.93" vaporized=""/>
    <tripinfo id="4220s4221e_95" depart="42.00" departLane="gneE10.441_0" departPos="5.10" departSpeed="0.00" departDelay="0.00" arrival="102.00" arrivalLane="28573015#6_0" arrivalPos="68.82" arrivalSpeed="17.12" duration="60.00" routeLength="523.65" waitingTime="18.00" waitingCount="1" stopTime="0.00" timeLoss="29.35" rerouteNo="0" devices="tripinfo_4220s4221e_95" vType="type1" speedFactor="1.06" vaporized=""/>
    <tripinfo id="north4221_26" depart="20.00" departLane="-620463733_0" departPos="5.10" departSpeed="0.00" departDelay="9.00" arrival="103.00" arrivalLane="28594060#4_1" arrivalPos="123.22" arrivalSpeed="15.06" duration="83.00" routeLength="885.44" waitingTime="12.00" waitingCount="1" stopTime="0.00" timeLoss="26.54" rerouteNo="0" devices="tripinfo_north4221_26" vType="type1" speedFactor="0.92" vaporized=""/>
    <tripinfo id="south4220_108" depart="48.00" departLane="gneE10.441_0" departPos="5.10" departSpeed="0.00" departDelay="0.00" arrival="103.00" arrivalLane="gneE41_0" arrivalPos="453.36" arrivalSpeed="14.73" duration="55.00" routeLength="476.04" waitingTime="13.00" waitingCount="1" stopTime="0.00" timeLoss="22.34" rerouteNo="0" devices="tripinfo_south4220_108" vType="type1" speedFactor="1.06" vaporized=""/>
    <tripinfo id="4235e4221e_3" depart="3.00" departLane="619523290#0_0" departPos="5.10" departSpeed="0.00" departDelay="2.00" arrival="104.00" arrivalLane="28573015#6_0" arrivalPos="68.82" arrivalSpeed="17.01" duration="101.00" routeLength="1193.40" waitingTime="11.00" waitingCount="2" stopTime="0.00" timeLoss="33.74" rerouteNo="0" devices="tripinfo_4235e4221e_3" vType="type1" speedFactor="1.08" vaporized=""/>
    <tripinfo id="north4221_36" depart="26.00" departLane="-620463733_0" departPos="5.10" departSpeed="0.00" departDelay="11.00" arrival="104.00" arrivalLane="28594060#4_0" arrivalPos="123.22" arrivalSpeed="15.80" duration="78.00" routeLength="885.44" waitingTime="7.00" waitingCount="1" stopTime="0.00" timeLoss="24.82" rerouteNo="0" devices="tripinfo_north4221_36" vType="type1" speedFactor="0.97" vaporized=""/>
    <tripinfo id="north4221_44" depart="32.00" departLane="-620463733_0" departPos="5.10" departSpeed="0.00" departDelay="15.00" arrival="104.00" arrivalLane="28594060#4_1" arrivalPos="123.22" arrivalSpeed="16.99" duration="72.00" routeLength="885.44" waitingTime="3.00" waitingCount="1" stopTime="0.00" timeLoss="22.96" rerouteNo="0" devices="tripinfo_north4221_44" vType="type1" speedFactor="1.04" vaporized=""/>
    <tripinfo id="north4221_46" depart="35.00" departLane="-620463733_0" departPos="5.10" departSpeed="0.00" departDelay="17.00" arrival="105.00" arrivalLane="28594060#4_0" arrivalPos="123.22" arrivalSpeed="15.47" duration="70.00" routeLength="885.44" waitingTime="2.00" waitingCount="1" stopTime="0.00" timeLoss="18.37" rerouteNo="0" devices="tripinfo_north4221_46" vType="type1" speedFactor="1.00" vaporized=""/>
    <tripinfo id="4221n4220s_51" depart="41.00" departLane="-620463733_0" departPos="5.10" departSpeed="0.00" departDelay="21.00" arrival="105.00" arrivalLane="gneE41_0" arrivalPos="453.36" arrivalSpeed="15.77" duration="64.00" routeLength="868.52" waitingTime="0.00" waitingCount="0" stopTime="0.00" timeLoss="13.55" rerouteNo="0" devices="tripinfo_4221n4220s_51" vType="type1" speedFactor="1.17" vaporized=""/>
    <tripinfo id="4219s4221e_4" depart="1.00" departLane="620377506_0" departPos="5.10" departSpeed="0.00" departDelay="0.00" arrival="106.00" arrivalLane="28573015#6_0" arrivalPos="68.82" arrivalSpeed="16.52" duration="105.00" routeLength="1271.65" waitingTime="8.00" waitingCount="1" stopTime="0.00" timeLoss="30.28" rerouteNo="0" devices="tripinfo_4219s4221e_4" vType="type1" speedFactor="1.03" vaporized=""/>
    <tripinfo id="4220s4219n_131" depart="73.00" departLane="gneE10.441_0" departPos="5.10" departSpeed="0.00" departDelay="15.00" arrival="109.00" arrivalLane="620377501#0_0" arrivalPos="20.24" arrivalSpeed="17.27" duration="36.00" routeLength="243.00" waitingTime="9.00" waitingCount="1" stopTime="0.00" timeLoss="21.89" rerouteNo="0" devices="tripinfo_4220s4219n_131" vType="type1" speedFactor="1.07" vaporized=""/>
    <tripinfo id="north4221_49" depart="38.00" departLane="-620463733_0" departPos="5.10" departSpeed="0.00" departDelay="18.00" arrival="110.00" arrivalLane="28594060#4_0" arrivalPos="123.22" arrivalSpeed="12.97" duration="72.00" routeLength="885.44" waitingTime="0.00" waitingCount="0" stopTime="0.00" timeLoss="11.28" rerouteNo="0" devices="tripinfo_north4221_49" vType="type1" speedFactor="0.85" vaporized=""/>
    <tripinfo id="north4221_59" depart="47.00" departLane="-620463733_0" departPos="5.10" departSpeed="0.00" departDelay="22.00" arrival="111.00" arrivalLane="28594060#4_0" arrivalPos="123.22" arrivalSpeed="15.57" duration="64.00" routeLength="885.44" waitingTime="0.00" waitingCount="0" stopTime="0.00" timeLoss="10.91" rerouteNo="0" devices="tripinfo_north4221_59" vType="type1" speedFactor="0.97" vaporized=""/>
    <tripinfo id="4220s4219n_128" depart="55.00" departLane="gneE10.441_0" departPos="5.10" departSpeed="0.00" departDelay="0.00" arrival="111.00" arrivalLane="620377501#0_0" arrivalPos="20.24" arrivalSpeed="17.77" duration="56.00" routeLength="243.00" waitingTime="23.00" waitingCount="3" stopTime="0.00" timeLoss="41.98" rerouteNo="0" devices="tripinfo_4220s4219n_128" vType="type1" speedFactor="1.12" vaporized=""/>
    <tripinfo id="south4220_129" depart="57.00" departLane="gneE10.441_0" departPos="5.10" departSpeed="0.00" departDelay="0.00" arrival="113.00" arrivalLane="gneE41_0" arrivalPos="453.36" arrivalSpeed="13.26" duration="56.00" routeLength="476.04" waitingTime="10.00" waitingCount="2" stopTime="0.00" timeLoss="21.75" rerouteNo="0" devices="tripinfo_south4220_129" vType="type1" speedFactor="1.01" vaporized=""/>
    <tripinfo id="4220n4235w_18" depart="6.00" departLane="gneE47_0" departPos="5.10" departSpeed="0.00" departDelay="0.00" arrival="114.00" arrivalLane="619523287#1_0" arrivalPos="83.27" arrivalSpeed="14.30" duration="108.00" routeLength="943.75" waitingTime="22.00" waitingCount="2" stopTime="0.00" timeLoss="40.90" rerouteNo="0" devices="tripinfo_4220n4235w_18" vType="type1" speedFactor="0.94" vaporized=""/>
    <tripinfo id="4220s4235w_111" depart="51.00" departLane="gneE10.441_0" departPos="5.10" departSpeed="0.00" departDelay="3.00" arrival="115.00" arrivalLane="619523287#1_0" arrivalPos="83.27" arrivalSpeed="13.23" duration="64.00" routeLength="513.12" waitingTime="14.00" waitingCount="2" stopTime="0.00" timeLoss="28.08" rerouteNo="0" devices="tripinfo_4220s4235w_111" vType="type1" speedFactor="0.87" vaporized=""/>
    <tripinfo id="4235e4219n_32" depart="29.00" departLane="619523290#0_0" departPos="5.10" departSpeed="0.00" departDelay="15.00" arrival="116.00" arrivalLane="620377501#0_1" arrivalPos="20.24" arrivalSpeed="16.64" duration="87.00" routeLength="724.98" waitingTime="23.00" waitingCount="3" stopTime="0.00" timeLoss="43.66" rerouteNo="0" devices="tripinfo_4235e4219n_32" vType="type1" speedFactor="1.01" vaporized=""/>
    <tripinfo id="4235e4219n_23" depart="21.00" departLane="619523290#0_0" departPos="5.10" departSpeed="0.00" departDelay="12.00" arrival="117.00" arrivalLane="620377501#0_0" arrivalPos="20.24" arrivalSpeed="14.01" duration="96.00" routeLength="724.98" waitingTime="25.00" waitingCount="3" stopTime="0.00" timeLoss="46.90" rerouteNo="0" devices="tripinfo_4235e4219n_23" vType="type1" speedFactor="0.89" vaporized=""/>
    <tripinfo id="4219s4235w_37" depart="15.00" departLane="620377506_0" departPos="5.10" departSpeed="0.00" departDelay="0.00" arrival="117.00" arrivalLane="619523287#1_0" arrivalPos="83.27" arrivalSpeed="18.91" duration="102.00" routeLength="1117.47" waitingTime="29.00" waitingCount="1" stopTime="0.00" timeLoss="44.62" rerouteNo="0" devices="tripinfo_4219s4235w_37" vType="type1" speedFactor="1.18" vaporized=""/>
    <tripinfo id="4235e4219n_53" depart="50.00" departLane="619523290#0_0" departPos="5.10" departSpeed="0.00" departDelay="28.00" arrival="118.00" arrivalLane="620377501#0_1" arrivalPos="20.24" arrivalSpeed="18.24" duration="68.00" routeLength="724.98" waitingTime="9.00" waitingCount="2" stopTime="0.00" timeLoss="27.80" rerouteNo="0" devices="tripinfo_4235e4219n_53" vType="type1" speedFactor="1.10" vaporized=""/>
    <tripinfo id="4235e4219n_39" depart="41.00" departLane="619523290#0_0" departPos="5.10" departSpeed="0.00" departDelay="25.00" arrival="119.00" arrivalLane="620377501#0_0" arrivalPos="20.24" arrivalSpeed="13.96" duration="78.00" routeLength="724.98" waitingTime="11.00" waitingCount="2" stopTime="0.00" timeLoss="29.27" rerouteNo="0" devices="tripinfo_4235e4219n_39" vType="type1" speedFactor="0.90" vaporized=""/>
    <tripinfo id="4219s4235w_62" depart="25.00" departLane="620377506_0" departPos="5.10" departSpeed="0.00" departDelay="0.00" arrival="119.00" arrivalLane="619523287#1_0" arrivalPos="83.27" arrivalSpeed="15.88" duration="94.00" routeLength="1117.47" waitingTime="15.00" waitingCount="1" stopTime="0.00" timeLoss="27.33" rerouteNo="0" devices="tripinfo_4219s4235w_62" vType="type1" speedFactor="1.02" vaporized=""/>
    <tripinfo id="south4219_79" depart="33.00" departLane="620377506_0" departPos="5.10" departSpeed="0.00" departDelay="0.00" arrival="121.00" arrivalLane="547625725_1" arrivalPos="73.62" arrivalSpeed="19.03" duration="88.00" routeLength="808.30" waitingTime="27.00" waitingCount="2" stopTime="0.00" timeLoss="44.00" rerouteNo="0" devices="tripinfo_south4219_79" vType="type1" speedFactor="1.09" vaporized=""/>
    <tripinfo id="south4219_85" depart="37.00" departLane="620377506_0" departPos="5.10" departSpeed="0.00" departDelay="0.00" arrival="121.00" arrivalLane="547625725_0" arrivalPos="73.62" arrivalSpeed="18.91" duration="84.00" routeLength="808.30" waitingTime="18.00" waitingCount="2" stopTime="0.00" timeLoss="35.19" rerouteNo="0" devices="tripinfo_south4219_85" vType="type1" speedFactor="0.98" vaporized=""/>
    <tripinfo id="4235n4219n_133" depart="59.00" departLane="-628341438#1_0" departPos="5.10" departSpeed="0.00" departDelay="0.00" arrival="121.00" arrivalLane="620377501#0_1" arrivalPos="20.24" arrivalSpeed="16.23" duration="62.00" routeLength="473.89" waitingTime="13.00" waitingCount="2" stopTime="0.00" timeLoss="33.29" rerouteNo="0" devices="tripinfo_4235n4219n_133" vType="type1" speedFactor="1.04" vaporized=""/>
    <tripinfo id="south4219_98" depart="46.00" departLane="620377506_0" departPos="5.10" departSpeed="0.00" departDelay="2.00" arrival="122.00" arrivalLane="547625725_1" arrivalPos="73.62" arrivalSpeed="19.31" duration="76.00" routeLength="808.30" waitingTime="17.00" waitingCount="1" stopTime="0.00" timeLoss="33.72" rerouteNo="0" devices="tripinfo_south4219_98" vType="type1" speedFactor="1.12" vaporized=""/>
    <tripinfo id="4219n4235w_122" depart="54.00" departLane="620377515_0" departPos="5.10" departSpeed="0.00" departDelay="1.00" arrival="122.00" arrivalLane="619523287#1_0" arrivalPos="83.27" arrivalSpeed="16.38" duration="68.00" routeLength="1174.94" waitingTime="0.00" waitingCount="0" stopTime="0.00" timeLoss="10.48" rerouteNo="0" devices="tripinfo_4219n4235w_122" vType="type1" speedFactor="1.03" vaporized=""/>
    <tripinfo id="4235n4219n_144" depart="65.00" departLane="-628341438#1_0" departPos="5.10" departSpeed="0.00" departDelay="2.00" arrival="122.00" arrivalLane="620377501#0_0" arrivalPos="20.24" arrivalSpeed="11.32" duration="57.00" routeLength="473.89" waitingTime="5.00" waitingCount="1" stopTime="0.00" timeLoss="17.20" rerouteNo="0" devices="tripinfo_4235n4219n_144" vType="type1" speedFactor="0.73" vaporized=""/>