<?xml version="1.0" encoding="UTF-8"?>

<!-- generated on 09/01/20 20:19:27 by Eclipse SUMO Version 1.5.0
<configuration xmlns:xsi="http://www.w3.org/2001/XMLSchema-instance" xsi:noNamespaceSchemaLocation="http://sumo.dlr.de/xsd/sumoConfiguration.xsd">

    <input>
        <net-file value="../simulation/osm.net.xml"/>
        <route-files value="../simulation/osm.rou.xml"/>
        <additional-files value="../simulation/osm.det.xml"/>
    </input>

    <output>
        <summary-output value="summary.xml"/>
        <tripinfo-output value="tripinfoRL.xml"/>
    </output>

    <time>
        <begin value="0"/>
    </time>

    <processing>
        <no-internal-links value="true"/>
    </processing>

    <report>
        <verbose value="true"/>
        <no-step-log value="true"/>
    </report>

    <traci_server>
        <remote-port value="56523"/>
    </traci_server>

</configuration>
-->

<tripinfos xmlns:xsi="http://www.w3.org/2001/XMLSchema-instance" xsi:noNamespaceSchemaLocation="http://sumo.dlr.de/xsd/tripinfo_file.xsd">
    <tripinfo id="nw4235_0" depart="0.00" departLane="-628341438#1_0" departPos="5.10" departSpeed="0.00" departDelay="0.00" arrival="22.00" arrivalLane="619523287#1_0" arrivalPos="83.27" arrivalSpeed="16.48" duration="22.00" routeLength="265.87" waitingTime="0.00" waitingCount="0" stopTime="0.00" timeLoss="5.60" rerouteNo="0" devices="tripinfo_nw4235_0" vType="type1" speedFactor="1.06" vaporized=""/>
    <tripinfo id="nw4235_10" depart="4.00" departLane="-628341438#1_0" departPos="5.10" departSpeed="0.00" departDelay="0.00" arrival="25.00" arrivalLane="619523287#1_0" arrivalPos="83.27" arrivalSpeed="16.89" duration="21.00" routeLength="265.87" waitingTime="0.00" waitingCount="0" stopTime="0.00" timeLoss="5.62" rerouteNo="0" devices="tripinfo_nw4235_10" vType="type1" speedFactor="1.09" vaporized=""/>
    <tripinfo id="se4235_3" depart="6.00" departLane="619523290#0_0" departPos="5.10" departSpeed="0.00" departDelay="5.00" arrival="44.00" arrivalLane="628341438#1_0" arrivalPos="36.44" arrivalSpeed="14.68" duration="38.00" routeLength="366.85" waitingTime="6.00" waitingCount="1" stopTime="0.00" timeLoss="16.12" rerouteNo="0" devices="tripinfo_se4235_3" vType="type1" speedFactor="1.08" vaporized=""/>
    <tripinfo id="nw4235_41" depart="21.00" departLane="-628341438#1_0" departPos="5.10" departSpeed="0.00" departDelay="0.00" arrival="44.00" arrivalLane="619523287#1_0" arrivalPos="83.27" arrivalSpeed="15.76" duration="23.00" routeLength="265.87" waitingTime="0.00" waitingCount="0" stopTime="0.00" timeLoss="4.78" rerouteNo="0" devices="tripinfo_nw4235_41" vType="type1" speedFactor="0.96" vaporized=""/>
    <tripinfo id="nw4235_52" depart="24.00" departLane="-628341438#1_0" departPos="5.10" departSpeed="0.00" departDelay="0.00" arrival="46.00" arrivalLane="619523287#1_0" arrivalPos="83.27" arrivalSpeed="15.87" duration="22.00" routeLength="265.87" waitingTime="0.00" waitingCount="0" stopTime="0.00" timeLoss="5.06" rerouteNo="0" devices="tripinfo_nw4235_52" vType="type1" speedFactor="1.02" vaporized=""/>
    <tripinfo id="se4235_5" depart="10.00" departLane="619523290#0_0" departPos="5.10" departSpeed="0.00" departDelay="8.00" arrival="47.00" arrivalLane="628341438#1_0" arrivalPos="36.44" arrivalSpeed="10.87" duration="37.00" routeLength="366.85" waitingTime="0.00" waitingCount="0" stopTime="0.00" timeLoss="9.02" rerouteNo="0" devices="tripinfo_se4235_5" vType="type1" speedFactor="0.83" vaporized=""/>
    <tripinfo id="se4235_15" depart="17.00" departLane="619523290#0_0" departPos="5.10" departSpeed="0.00" departDelay="10.00" arrival="49.00" arrivalLane="628341438#1_0" arrivalPos="36.44" arrivalSpeed="11.79" duration="32.00" routeLength="366.85" waitingTime="0.00" waitingCount="0" stopTime="0.00" timeLoss="7.21" rerouteNo="0" devices="tripinfo_se4235_15" vType="type1" speedFactor="0.93" vaporized=""/>
    <tripinfo id="north4219_6" depart="2.00" departLane="620377515_0" departPos="5.10" departSpeed="0.00" departDelay="0.00" arrival="52.00" arrivalLane="620377501#0_0" arrivalPos="20.24" arrivalSpeed="16.37" duration="50.00" routeLength="923.62" waitingTime="0.00" waitingCount="0" stopTime="0.00" timeLoss="7.01" rerouteNo="0" devices="tripinfo_north4219_6" vType="type1" speedFactor="1.05" vaporized=""/>
    <tripinfo id="nw4235_65" depart="28.00" departLane="-628341438#1_0" departPos="5.10" departSpeed="0.00" departDelay="0.00" arrival="53.00" arrivalLane="619523287#1_0" arrivalPos="83.27" arrivalSpeed="13.53" duration="25.00" routeLength="265.87" waitingTime="0.00" waitingCount="0" stopTime="0.00" timeLoss="5.51" rerouteNo="0" devices="tripinfo_nw4235_65" vType="type1" speedFactor="0.88" vaporized=""/>
    <tripinfo id="se4235_22" depart="27.00" departLane="619523290#0_0" departPos="5.10" departSpeed="0.00" departDelay="16.00" arrival="57.00" arrivalLane="628341438#1_0" arrivalPos="36.44" arrivalSpeed="13.33" duration="30.00" routeLength="366.85" waitingTime="0.00" waitingCount="0" stopTime="0.00" timeLoss="5.94" rerouteNo="0" devices="tripinfo_se4235_22" vType="type1" speedFactor="0.98" vaporized=""/>
    <tripinfo id="north4219_8" depart="5.00" departLane="620377515_0" departPos="5.10" departSpeed="0.00" departDelay="2.00" arrival="58.00" arrivalLane="620377501#0_0" arrivalPos="20.24" arrivalSpeed="15.61" duration="53.00" routeLength="923.62" waitingTime="0.00" waitingCount="0" stopTime="0.00" timeLoss="5.90" rerouteNo="0" devices="tripinfo_north4219_8" vType="type1" speedFactor="0.94" vaporized=""/>
    <tripinfo id="4235n4219n_27" depart="13.00" departLane="-628341438#1_0" departPos="5.10" departSpeed="0.00" departDelay="0.00" arrival="63.00" arrivalLane="620377501#0_0" arrivalPos="20.24" arrivalSpeed="14.90" duration="50.00" routeLength="473.89" waitingTime="3.00" waitingCount="2" stopTime="0.00" timeLoss="18.66" rerouteNo="0" devices="tripinfo_4235n4219n_27" vType="type1" speedFactor="0.95" vaporized=""/>
    <tripinfo id="nw4235_93" depart="41.00" departLane="-628341438#1_0" departPos="5.10" departSpeed="0.00" departDelay="0.00" arrival="64.00" arrivalLane="619523287#1_0" arrivalPos="83.27" arrivalSpeed="14.55" duration="23.00" routeLength="265.87" waitingTime="0.00" waitingCount="0" stopTime="0.00" timeLoss="4.20" rerouteNo="0" devices="tripinfo_nw4235_93" vType="type1" speedFactor="0.92" vaporized=""/>
    <tripinfo id="south4219_18" depart="8.00" departLane="620377506_0" departPos="5.10" departSpeed="0.00" departDelay="0.00" arrival="65.00" arrivalLane="547625725_0" arrivalPos="73.62" arrivalSpeed="19.92" duration="57.00" routeLength="808.30" waitingTime="0.00" waitingCount="0" stopTime="0.00" timeLoss="5.69" rerouteNo="0" devices="tripinfo_south4219_18" vType="type1" speedFactor="0.94" vaporized=""/>
    <tripinfo id="north4221_19" depart="9.00" departLane="-620463733_0" departPos="5.10" departSpeed="0.00" departDelay="0.00" arrival="65.00" arrivalLane="28594060#4_0" arrivalPos="123.22" arrivalSpeed="18.82" duration="56.00" routeLength="885.44" waitingTime="0.00" waitingCount="0" stopTime="0.00" timeLoss="11.30" rerouteNo="0" devices="tripinfo_north4221_19" vType="type1" speedFactor="1.16" vaporized=""/>
    <tripinfo id="north4221_7" depart="2.00" departLane="-620463733_0" departPos="5.10" departSpeed="0.00" departDelay="0.00" arrival="69.00" arrivalLane="28594060#4_0" arrivalPos="123.22" arrivalSpeed="14.76" duration="67.00" routeLength="885.44" waitingTime="0.00" waitingCount="0" stopTime="0.00" timeLoss="9.09" rerouteNo="0" devices="tripinfo_north4221_7" vType="type1" speedFactor="0.89" vaporized=""/>
    <tripinfo id="south4221_9" depart="3.00" departLane="-28594060#4_0" departPos="5.10" departSpeed="0.00" departDelay="0.00" arrival="70.00" arrivalLane="620463733_0" arrivalPos="133.76" arrivalSpeed="13.97" duration="67.00" routeLength="875.34" waitingTime="0.00" waitingCount="0" stopTime="0.00" timeLoss="5.45" rerouteNo="0" devices="tripinfo_south4221_9" vType="type1" speedFactor="0.86" vaporized=""/>
    <tripinfo id="north4219_24" depart="13.00" departLane="620377515_0" departPos="5.10" departSpeed="0.00" departDelay="0.00" arrival="74.00" arrivalLane="620377501#0_0" arrivalPos="20.24" arrivalSpeed="13.70" duration="61.00" routeLength="923.62" waitingTime="0.00" waitingCount="0" stopTime="0.00" timeLoss="7.69" rerouteNo="0" devices="tripinfo_north4219_24" vType="type1" speedFactor="0.83" vaporized=""/>
    <tripinfo id="north4219_38" depart="23.00" departLane="620377515_0" departPos="5.10" departSpeed="0.00" departDelay="5.00" arrival="74.00" arrivalLane="620377501#0_1" arrivalPos="20.24" arrivalSpeed="17.51" duration="51.00" routeLength="923.62" waitingTime="0.00" waitingCount="0" stopTime="0.00" timeLoss="10.91" rerouteNo="0" devices="tripinfo_north4219_38" vType="type1" speedFactor="1.10" vaporized=""/>
    <tripinfo id="north4219_28" depart="16.00" departLane="620377515_0" departPos="5.10" departSpeed="0.00" departDelay="1.00" arrival="76.00" arrivalLane="620377501#0_0" arrivalPos="20.24" arrivalSpeed="17.83" duration="60.00" routeLength="923.62" waitingTime="6.00" waitingCount="1" stopTime="0.00" timeLoss="20.33" rerouteNo="0" devices="tripinfo_north4219_28" vType="type1" speedFactor="1.13" vaporized=""/>
    <tripinfo id="4221n4219s_40" depart="20.00" departLane="-620463733_0" departPos="5.10" departSpeed="0.00" departDelay="0.00" arrival="80.00" arrivalLane="547625725_0" arrivalPos="73.62" arrivalSpeed="18.43" duration="60.00" routeLength="599.97" waitingTime="6.00" waitingCount="1" stopTime="0.00" timeLoss="25.66" rerouteNo="0" devices="tripinfo_4221n4219s_40" vType="type1" speedFactor="1.03" vaporized=""/>
    <tripinfo id="north4219_54" depart="29.00" departLane="620377515_0" departPos="5.10" departSpeed="0.00" departDelay="4.00" arrival="80.00" arrivalLane="620377501#0_0" arrivalPos="20.24" arrivalSpeed="16.34" duration="51.00" routeLength="923.62" waitingTime="0.00" waitingCount="0" stopTime="0.00" timeLoss="6.72" rerouteNo="0" devices="tripinfo_north4219_54" vType="type1" speedFactor="1.00" vaporized=""/>
    <tripinfo id="north4221_25" depart="13.00" departLane="-620463733_0" departPos="5.10" departSpeed="0.00" departDelay="0.00" arrival="83.00" arrivalLane="28594060#4_0" arrivalPos="123.22" arrivalSpeed="14.02" duration="70.00" routeLength="885.44" waitingTime="0.00" waitingCount="0" stopTime="0.00" timeLoss="10.30" rerouteNo="0" devices="tripinfo_north4221_25" vType="type1" speedFactor="0.87" vaporized=""/>
    <tripinfo id="se4235_32" depart="40.00" departLane="619523290#0_0" departPos="5.10" departSpeed="0.00" departDelay="23.00" arrival="87.00" arrivalLane="628341438#1_0" arrivalPos="36.44" arrivalSpeed="13.12" duration="47.00" routeLength="366.85" waitingTime="13.00" waitingCount="1" stopTime="0.00" timeLoss="23.57" rerouteNo="0" devices="tripinfo_se4235_32" vType="type1" speedFactor="1.01" vaporized=""/>
    <tripinfo id="south4220_14" depart="6.00" departLane="gneE10_0" departPos="5.10" departSpeed="0.00" departDelay="0.00" arrival="88.00" arrivalLane="gneE41_0" arrivalPos="453.36" arrivalSpeed="13.27" duration="82.00" routeLength="896.19" waitingTime="5.00" waitingCount="1" stopTime="0.00" timeLoss="16.41" rerouteNo="0" devices="tripinfo_south4220_14" vType="type1" speedFactor="0.99" vaporized=""/>
    <tripinfo id="north4221_60" depart="31.00" departLane="-620463733_0" departPos="5.10" departSpeed="0.00" departDelay="5.00" arrival="89.00" arrivalLane="28594060#4_0" arrivalPos="123.22" arrivalSpeed="17.77" duration="58.00" routeLength="885.44" waitingTime="0.00" waitingCount="0" stopTime="0.00" timeLoss="10.50" rerouteNo="0" devices="tripinfo_north4221_60" vType="type1" speedFactor="1.08" vaporized=""/>
    <tripinfo id="4220s4219n_45" depart="21.00" departLane="gneE10_0" departPos="5.10" departSpeed="0.00" departDelay="0.00" arrival="91.00" arrivalLane="620377501#0_1" arrivalPos="20.24" arrivalSpeed="17.78" duration="70.00" routeLength="663.15" waitingTime="15.00" waitingCount="1" stopTime="0.00" timeLoss="28.45" rerouteNo="0" devices="tripinfo_4220s4219n_45" vType="type1" speedFactor="1.09" vaporized=""/>
    <tripinfo id="4220s4219n_36" depart="17.00" departLane="gneE10_0" departPos="5.10" departSpeed="0.00" departDelay="0.00" arrival="92.00" arrivalLane="620377501#0_0" arrivalPos="20.24" arrivalSpeed="15.05" duration="75.00" routeLength="663.15" waitingTime="17.00" waitingCount="1" stopTime="0.00" timeLoss="28.22" rerouteNo="0" devices="tripinfo_4220s4219n_36" vType="type1" speedFactor="0.97" vaporized=""/>
    <tripinfo id="north4221_62" depart="34.00" departLane="-620463733_0" departPos="5.10" departSpeed="0.00" departDelay="7.00" arrival="96.00" arrivalLane="28594060#4_0" arrivalPos="123.22" arrivalSpeed="16.91" duration="62.00" routeLength="885.44" waitingTime="0.00" waitingCount="0" stopTime="0.00" timeLoss="10.36" rerouteNo="0" devices="tripinfo_north4221_62" vType="type1" speedFactor="1.02" vaporized=""/>
    <tripinfo id="north4221_68" depart="37.00" departLane="-620463733_0" departPos="5.10" departSpeed="0.00" departDelay="6.00" arrival="96.00" arrivalLane="28594060#4_1" arrivalPos="123.22" arrivalSpeed="17.22" duration="59.00" routeLength="885.44" waitingTime="0.00" waitingCount="0" stopTime="0.00" timeLoss="9.75" rerouteNo="0" devices="tripinfo_north4221_68" vType="type1" speedFactor="1.04" vaporized=""/>
    <tripinfo id="4235e4219n_1" depart="0.00" departLane="619523290#0_0" departPos="5.10" departSpeed="0.00" departDelay="0.00" arrival="97.00" arrivalLane="620377501#0_0" arrivalPos="20.24" arrivalSpeed="15.25" duration="97.00" routeLength="724.98" waitingTime="33.00" waitingCount="2" stopTime="0.00" timeLoss="50.53" rerouteNo="0" devices="tripinfo_4235e4219n_1" vType="type1" speedFactor="0.94" vaporized=""/>
    <tripinfo id="4235e4219n_11" depart="11.00" departLane="619523290#0_0" departPos="5.10" departSpeed="0.00" departDelay="7.00" arrival="98.00" arrivalLane="620377501#0_0" arrivalPos="20.24" arrivalSpeed="16.30" duration="87.00" routeLength="724.98" waitingTime="25.00" waitingCount="2" stopTime="0.00" timeLoss="43.91" rerouteNo="0" devices="tripinfo_4235e4219n_11" vType="type1" speedFactor="1.03" vaporized=""/>
    <tripinfo id="4235e4219n_26" depart="31.00" departLane="619523290#0_0" departPos="5.10" departSpeed="0.00" departDelay="18.00" arrival="99.00" arrivalLane="620377501#0_0" arrivalPos="20.24" arrivalSpeed="14.85" duration="68.00" routeLength="724.98" waitingTime="10.00" waitingCount="1" stopTime="0.00" timeLoss="20.25" rerouteNo="0" devices="tripinfo_4235e4219n_26" vType="type1" speedFactor="0.92" vaporized=""/>
    <tripinfo id="4235n4219n_98" depart="44.00" departLane="-628341438#1_0" departPos="5.10" departSpeed="0.00" departDelay="2.00" arrival="99.00" arrivalLane="620377501#0_2" arrivalPos="20.24" arrivalSpeed="18.65" duration="55.00" routeLength="473.89" waitingTime="7.00" waitingCount="1" stopTime="0.00" timeLoss="28.61" rerouteNo="0" devices="tripinfo_4235n4219n_98" vType="type1" speedFactor="1.12" vaporized=""/>
    <tripinfo id="4235e4219s_16" depart="18.00" departLane="619523290#0_0" departPos="5.10" departSpeed="0.00" departDelay="11.00" arrival="102.00" arrivalLane="547625725_1" arrivalPos="73.62" arrivalSpeed="17.52" duration="84.00" routeLength="687.48" waitingTime="26.00" waitingCount="1" stopTime="0.00" timeLoss="38.34" rerouteNo="0" devices="tripinfo_4235e4219s_16" vType="type1" speedFactor="0.88" vaporized=""/>
    <tripinfo id="se4221_94" depart="41.00" departLane="-28594060#4_0" departPos="5.10" departSpeed="0.00" departDelay="0.00" arrival="102.00" arrivalLane="28573015#6_0" arrivalPos="68.82" arrivalSpeed="18.17" duration="61.00" routeLength="955.26" waitingTime="0.00" waitingCount="0" stopTime="0.00" timeLoss="7.74" rerouteNo="0" devices="tripinfo_se4221_94" vType="type1" speedFactor="1.09" vaporized=""/>
    <tripinfo id="4235e4219s_2" depart="3.00" departLane="619523290#0_0" departPos="5.10" departSpeed="0.00" departDelay="3.00" arrival="103.00" arrivalLane="547625725_0" arrivalPos="73.62" arrivalSpeed="20.14" duration="100.00" routeLength="687.48" waitingTime="40.00" waitingCount="2" stopTime="0.00" timeLoss="59.58" rerouteNo="0" devices="tripinfo_4235e4219s_2" vType="type1" speedFactor="1.01" vaporized=""/>
    <tripinfo id="4235e4219n_29" depart="34.00" departLane="619523290#0_0" departPos="5.10" departSpeed="0.00" departDelay="19.00" arrival="105.00" arrivalLane="620377501#0_0" arrivalPos="20.24" arrivalSpeed="15.44" duration="71.00" routeLength="724.98" waitingTime="12.00" waitingCount="1" stopTime="0.00" timeLoss="24.00" rerouteNo="0" devices="tripinfo_4235e4219n_29" vType="type1" speedFactor="0.93" vaporized=""/>
    <tripinfo id="north4221_72" depart="40.00" departLane="-620463733_0" departPos="5.10" departSpeed="0.00" departDelay="8.00" arrival="105.00" arrivalLane="28594060#4_0" arrivalPos="123.22" arrivalSpeed="15.61" duration="65.00" routeLength="885.44" waitingTime="0.00" waitingCount="0" stopTime="0.00" timeLoss="10.80" rerouteNo="0" devices="tripinfo_north4221_72" vType="type1" speedFactor="0.94" vaporized=""/>
    <tripinfo id="4220s4235w_61" depart="28.00" departLane="gneE10_0" departPos="5.10" departSpeed="0.00" departDelay="2.00" arrival="106.00" arrivalLane="619523287#1_0" arrivalPos="83.27" arrivalSpeed="17.55" duration="78.00" routeLength="933.27" waitingTime="9.00" waitingCount="1" stopTime="0.00" timeLoss="22.65" rerouteNo="0" devices="tripinfo_4220s4235w_61" vType="type1" speedFactor="1.12" vaporized=""/>
    <tripinfo id="north4221_85" depart="43.00" departLane="-620463733_0" departPos="5.10" departSpeed="0.00" departDelay="5.00" arrival="106.00" arrivalLane="28594060#4_1" arrivalPos="123.22" arrivalSpeed="15.50" duration="63.00" routeLength="885.44" waitingTime="0.00" waitingCount="0" stopTime="0.00" timeLoss="9.97" rerouteNo="0" devices="tripinfo_north4221_85" vType="type1" speedFactor="0.98" vaporized=""/>
    <tripinfo id="4219n4235w_31" depart="19.00" departLane="620377515_0" departPos="5.10" departSpeed="0.00" departDelay="3.00" arrival="107.00" arrivalLane="619523287#1_0" arrivalPos="83.27" arrivalSpeed="18.27" duration="88.00" routeLength="1174.94" waitingTime="12.00" waitingCount="1" stopTime="0.00" timeLoss="36.53" rerouteNo="0" devices="tripinfo_4219n4235w_31" vType="type1" speedFactor="1.15" vaporized=""/>
    <tripinfo id="4235e4219n_42" depart="50.00" departLane="619523290#0_0" departPos="5.10" departSpeed="0.00" departDelay="29.00" arrival="109.00" arrivalLane="620377501#0_0" arrivalPos="20.24" arrivalSpeed="17.87" duration="59.00" routeLength="724.98" waitingTime="0.00" waitingCount="0" stopTime="0.00" timeLoss="18.78" rerouteNo="0" devices="tripinfo_4235e4219n_42" vType="type1" speedFactor="1.09" vaporized=""/>
    <tripinfo id="south4219_46" depart="22.00" departLane="620377506_0" departPos="5.10" departSpeed="0.00" departDelay="0.00" arrival="109.00" arrivalLane="547625725_0" arrivalPos="73.62" arrivalSpeed="17.24" duration="87.00" routeLength="808.30" waitingTime="27.00" waitingCount="1" stopTime="0.00" timeLoss="39.42" rerouteNo="0" devices="tripinfo_south4219_46" vType="type1" speedFactor="1.00" vaporized=""/>
    <tripinfo id="4235e4219n_33" depart="41.00" departLane="619523290#0_0" departPos="5.10" departSpeed="0.00" departDelay="24.00" arrival="110.00" arrivalLane="620377501#0_1" arrivalPos="20.24" arrivalSpeed="19.50" duration="69.00" routeLength="724.98" waitingTime="14.00" waitingCount="1" stopTime="0.00" timeLoss="31.70" rerouteNo="0" devices="tripinfo_4235e4219n_33" vType="type1" speedFactor="1.17" vaporized=""/>
    <tripinfo id="4221n4235w_59" depart="28.00" departLane="-620463733_0" departPos="5.10" departSpeed="0.00" departDelay="3.00" arrival="110.00" arrivalLane="619523287#1_0" arrivalPos="83.27" arrivalSpeed="15.33" duration="82.00" routeLength="903.36" waitingTime="7.00" waitingCount="1" stopTime="0.00" timeLoss="25.18" rerouteNo="0" devices="tripinfo_4221n4235w_59" vType="type1" speedFactor="0.97" vaporized=""/>
    <tripinfo id="south4219_84" depart="39.00" departLane="620377506_0" departPos="5.10" departSpeed="0.00" departDelay="1.00" arrival="110.00" arrivalLane="547625725_0" arrivalPos="73.62" arrivalSpeed="18.63" duration="71.00" routeLength="808.30" waitingTime="14.00" waitingCount="1" stopTime="0.00" timeLoss="29.05" rerouteNo="0" devices="tripinfo_south4219_84" vType="type1" speedFactor="1.15" vaporized=""/>
    <tripinfo id="4220s4235w_64" depart="31.00" departLane="gneE10_0" departPos="5.10" departSpeed="0.00" departDelay="4.00" arrival="113.00" arrivalLane="619523287#1_0" arrivalPos="83.27" arrivalSpeed="15.22" duration="82.00" routeLength="933.27" waitingTime="6.00" waitingCount="1" stopTime="0.00" timeLoss="16.09" rerouteNo="0" devices="tripinfo_4220s4235w_64" vType="type1" speedFactor="0.94" vaporized=""/>
    <tripinfo id="4221n4220s_88" depart="46.00" departLane="-620463733_0" departPos="5.10" departSpeed="0.00" departDelay="8.00" arrival="113.00" arrivalLane="gneE41_0" arrivalPos="453.36" arrivalSpeed="13.05" duration="67.00" routeLength="868.52" waitingTime="0.00" waitingCount="0" stopTime="0.00" timeLoss="8.93" rerouteNo="0" devices="tripinfo_4221n4220s_88" vType="type1" speedFactor="1.01" vaporized=""/>
    <tripinfo id="4235e4219n_39" depart="47.00" departLane="619523290#0_0" departPos="5.10" departSpeed="0.00" departDelay="28.00" arrival="116.00" arrivalLane="620377501#0_0" arrivalPos="20.24" arrivalSpeed="14.42" duration="69.00" routeLength="724.98" waitingTime="6.00" waitingCount="1" stopTime="0.00" timeLoss="19.87" rerouteNo="0" devices="tripinfo_4235e4219n_39" vType="type1" speedFactor="0.90" vaporized=""/>
    <tripinfo id="se4235_51" depart="68.00" departLane="619523290#0_0" departPos="5.10" departSpeed="0.00" departDelay="44.00" arrival="118.00" arrivalLane="628341438#1_0" arrivalPos="36.44" arrivalSpeed="15.02" duration="50.00" routeLength="366.85" waitingTime="17.00" waitingCount="1" stopTime="0.00" timeLoss="30.03" rerouteNo="0" devices="tripinfo_se4235_51" vType="type1" speedFactor="1.17" vaporized=""/>
    <tripinfo id="south4220_55" depart="25.00" departLane="gneE10_0" departPos="5.10" departSpeed="0.00" departDelay="0.00" arrival="118.00" arrivalLane="gneE41_0" arrivalPos="453.36" arrivalSpeed="12.98" duration="93.00" routeLength="896.19" waitingTime="13.00" waitingCount="2" stopTime="0.00" timeLoss="27.69" rerouteNo="0" devices="tripinfo_south4220_55" vType="type1" speedFactor="1.00" vaporized=""/>
    <tripinfo id="4235e4219n_47" depart="59.00" departLane="619523290#0_0" departPos="5.10" departSpeed="0.00" departDelay="37.00" arrival="119.00" arrivalLane="620377501#0_0" arrivalPos="20.24" arrivalSpeed="14.83" duration="60.00" routeLength="724.98" waitingTime="0.00" waitingCount="0" stopTime="0.00" timeLoss="11.23" rerouteNo="0" devices="tripinfo_4235e4219n_47" vType="type1" speedFactor="0.90" vaporized=""/>
    <tripinfo id="4235e4219n_53" depart="69.00" departLane="619523290#0_0" departPos="5.10" departSpeed="0.00" departDelay="45.00" arrival="121.00" arrivalLane="620377501#0_0" arrivalPos="20.24" arrivalSpeed="17.35" duration="52.00" routeLength="724.98" waitingTime="0.00" waitingCount="0" stopTime="0.00" timeLoss="11.79" rerouteNo="0" devices="tripinfo_4235e4219n_53" vType="type1" speedFactor="1.10" vaporized=""/>
    <tripinfo id="south4220_101" depart="45.00" departLane="gneE10_0" departPos="5.10" departSpeed="0.00" departDelay="2.00" arrival="121.00" arrivalLane="gneE41_0" arrivalPos="453.36" arrivalSpeed="12.94" duration="76.00" routeLength="896.19" waitingTime="0.00" waitingCount="0" stopTime="0.00" timeLoss="8.28" rerouteNo="0" devices="tripinfo_south4220_101" vType="type1" speedFactor="0.96" vaporized=""/>
    <tripinfo id="4221w4220s_107" depart="44.00" departLane="-28573015#6_0" departPos="5.10" departSpeed="0.00" departDelay="0.00" arrival="124.00" arrivalLane="gneE41_0" arrivalPos="453.36" arrivalSpeed="13.62" duration="80.00" routeLength="955.32" waitingTime="4.00" waitingCount="1" stopTime="0.00" timeLoss="17.83" rerouteNo="0" devices="tripinfo_4221w4220s_107" vType="type1" speedFactor="1.03" vaporized=""/>
    <tripinfo id="4235e4219s_43" depart="53.00" departLane="619523290#0_0" departPos="5.10" departSpeed="0.00" departDelay="32.00" arrival="127.00" arrivalLane="547625725_0" arrivalPos="73.62" arrivalSpeed="17.36" duration="74.00" routeLength="687.48" waitingTime="19.00" waitingCount="1" stopTime="0.00" timeLoss="35.02" rerouteNo="0" devices="tripinfo_4235e4219s_43" vType="type1" speedFactor="1.04" vaporized=""/>
    <tripinfo id="4235e4219n_56" depart="72.00" departLane="619523290#0_0" departPos="5.10" departSpeed="0.00" departDelay="47.00" arrival="129.00" arrivalLane="620377501#0_0" arrivalPos="20.24" arrivalSpeed="14.11" duration="57.00" routeLength="724.98" waitingTime="0.00" waitingCount="0" stopTime="0.00" timeLoss="8.02" rerouteNo="0" devices="tripinfo_4235e4219n_56" vType="type1" speedFactor="0.90" vaporized=""/>
    <tripinfo id="south4221_118" depart="51.00" departLane="-28594060#4_0" departPos="5.10" departSpeed="0.00" departDelay="0.00" arrival="129.00" arrivalLane="620463733_0" arrivalPos="133.76" arrivalSpeed="15.48" duration="78.00" routeLength="875.34" waitingTime="13.00" waitingCount="1" stopTime="0.00" timeLoss="24.58" rerouteNo="0" devices="tripinfo_south4221_118" vType="type1" speedFactor="0.99" vaporized=""/>
    <tripinfo id="north4221_134" depart="64.00" departLane="-620463733_0" departPos="5.10" departSpeed="0.00" departDelay="5.00" arrival="129.00" arrivalLane="28594060#4_0" arrivalPos="123.22" arrivalSpeed="19.41" duration="65.00" routeLength="885.44" waitingTime="1.00" waitingCount="1" stopTime="0.00" timeLoss="23.04" rerouteNo="0" devices="tripinfo_north4221_134" vType="type1" speedFactor="1.23" vaporized=""/>
    <tripinfo id="south4220_109" depart="51.00" departLane="gneE10_0" departPos="5.10" departSpeed="0.00" departDelay="6.00" arrival="130.00" arrivalLane="gneE41_0" arrivalPos="453.36" arrivalSpeed="12.51" duration="79.00" routeLength="896.19" waitingTime="0.00" waitingCount="0" stopTime="0.00" timeLoss="11.01" rerouteNo="0" devices="tripinfo_south4220_109" vType="type1" speedFactor="0.96" vaporized=""/>
    <tripinfo id="4221n4219s_136" depart="67.00" departLane="-620463733_0" departPos="5.10" departSpeed="0.00" departDelay="7.00" arrival="130.00" arrivalLane="547625725_0" arrivalPos="73.62" arrivalSpeed="17.30" duration="63.00" routeLength="599.97" waitingTime="9.00" waitingCount="2" stopTime="0.00" timeLoss="31.48" rerouteNo="0" devices="tripinfo_4221n4219s_136" vType="type1" speedFactor="1.12" vaporized=""/>
    <tripinfo id="4235e4219n_63" depart="75.00" departLane="619523290#0_0" departPos="5.10" departSpeed="0.00" departDelay="48.00" arrival="131.00" arrivalLane="620377501#0_0" arrivalPos="20.24" arrivalSpeed="16.27" duration="56.00" routeLength="724.98" waitingTime="0.00" waitingCount="0" stopTime="0.00" timeLoss="10.94" rerouteNo="0" devices="tripinfo_4235e4219n_63" vType="type1" speedFactor="0.99" vaporized=""/>
    <tripinfo id="north4221_89" depart="49.00" departLane="-620463733_0" departPos="5.10" departSpeed="0.00" departDelay="10.00" arrival="131.00" arrivalLane="28594060#4_0" arrivalPos="123.22" arrivalSpeed="16.41" duration="82.00" routeLength="885.44" waitingTime="18.00" waitingCount="1" stopTime="0.00" timeLoss="31.64" rerouteNo="0" devices="tripinfo_north4221_89" vType="type1" speedFactor="1.02" vaporized=""/>
    <tripinfo id="south4220_116" depart="60.00" departLane="gneE10_0" departPos="5.10" departSpeed="0.00" departDelay="9.00" arrival="131.00" arrivalLane="gneE41_0" arrivalPos="453.36" arrivalSpeed="15.21" duration="71.00" routeLength="896.19" waitingTime="0.00" waitingCount="0" stopTime="0.00" timeLoss="16.07" rerouteNo="0" devices="tripinfo_south4220_116" vType="type1" speedFactor="1.18" vaporized=""/>
    <tripinfo id="south4221_122" depart="54.00" departLane="-28594060#4_0" departPos="5.10" departSpeed="0.00" departDelay="0.00" arrival="131.00" arrivalLane="620463733_0" arrivalPos="133.76" arrivalSpeed="17.15" duration="77.00" routeLength="875.34" waitingTime="11.00" waitingCount="1" stopTime="0.00" timeLoss="25.13" rerouteNo="0" devices="tripinfo_south4221_122" vType="type1" speedFactor="1.03" vaporized=""/>
    <tripinfo id="south4221_130" depart="57.00" departLane="-28594060#4_0" departPos="5.10" departSpeed="0.00" departDelay="0.00" arrival="132.00" arrivalLane="620463733_0" arrivalPos="133.76" arrivalSpeed="17.10" duration="75.00" routeLength="875.34" waitingTime="11.00" waitingCount="1" stopTime="0.00" timeLoss="23.96" rerouteNo="0" devices="tripinfo_south4221_130" vType="type1" speedFactor="1.03" vaporized=""/>
    <tripinfo id="4221n4219s_167" depart="79.00" departLane="-620463733_0" departPos="5.10" departSpeed="0.00" departDelay="5.00" arrival="132.00" arrivalLane="547625725_0" arrivalPos="73.62" arrivalSpeed="17.61" duration="53.00" routeLength="599.97" waitingTime="1.00" waitingCount="1" stopTime="0.00" timeLoss="18.95" rerouteNo="0" devices="tripinfo_4221n4219s_167" vType="type1" speedFactor="1.03" vaporized=""/>
    <tripinfo id="4235e4219n_73" depart="81.00" departLane="619523290#0_0" departPos="5.10" departSpeed="0.00" departDelay="49.00" arrival="133.00" arrivalLane="620377501#0_0" arrivalPos="20.24" arrivalSpeed="16.63" duration="52.00" routeLength="724.98" waitingTime="0.00" waitingCount="0" stopTime="0.00" timeLoss="10.16" rerouteNo="0" devices="tripinfo_4235e4219n_73" vType="type1" speedFactor="1.06" vaporized=""/>
    <tripinfo id="north4221_117" depart="58.00" departLane="-620463733_0" departPos="5.10" departSpeed="0.00" departDelay="7.00" arrival="135.00" arrivalLane="28594060#4_0" arrivalPos="123.22" arrivalSpeed="16.56" duration="77.00" routeLength="885.44" waitingTime="8.00" waitingCount="1" stopTime="0.00" timeLoss="25.42" rerouteNo="0" devices="tripinfo_north4221_117" vType="type1" speedFactor="1.00" vaporized=""/>