<?xml version="1.0" encoding="UTF-8"?>

<!-- generated on 09/18/20 18:28:08 by Eclipse SUMO Version 1.5.0
<configuration xmlns:xsi="http://www.w3.org/2001/XMLSchema-instance" xsi:noNamespaceSchemaLocation="http://sumo.dlr.de/xsd/sumoConfiguration.xsd">

    <input>
        <net-file value="../simulation/osm.net.xml"/>
        <route-files value="../simulation/osm.rou.xml"/>
        <additional-files value="../simulation/osm.det.xml"/>
    </input>

    <output>
        <summary-output value="summary.xml"/>
        <tripinfo-output value="tripinfoRL.xml"/>
    </output>

    <time>
        <begin value="0"/>
    </time>

    <processing>
        <no-internal-links value="true"/>
    </processing>

    <report>
        <verbose value="true"/>
        <no-step-log value="true"/>
    </report>

    <traci_server>
        <remote-port value="60865"/>
    </traci_server>

</configuration>
-->

<tripinfos xmlns:xsi="http://www.w3.org/2001/XMLSchema-instance" xsi:noNamespaceSchemaLocation="http://sumo.dlr.de/xsd/tripinfo_file.xsd">
    <tripinfo id="nw4235_0" depart="0.00" departLane="-628341438#1_0" departPos="5.10" departSpeed="0.00" departDelay="0.00" arrival="22.00" arrivalLane="619523287#1_0" arrivalPos="83.27" arrivalSpeed="16.48" duration="22.00" routeLength="265.87" waitingTime="0.00" waitingCount="0" stopTime="0.00" timeLoss="5.60" rerouteNo="0" devices="tripinfo_nw4235_0" vType="type1" speedFactor="1.06" vaporized=""/>
    <tripinfo id="nw4235_10" depart="4.00" departLane="-628341438#1_0" departPos="5.10" departSpeed="0.00" departDelay="0.00" arrival="25.00" arrivalLane="619523287#1_0" arrivalPos="83.27" arrivalSpeed="16.89" duration="21.00" routeLength="265.87" waitingTime="0.00" waitingCount="0" stopTime="0.00" timeLoss="5.62" rerouteNo="0" devices="tripinfo_nw4235_10" vType="type1" speedFactor="1.09" vaporized=""/>
    <tripinfo id="se4235_3" depart="6.00" departLane="619523290#0_0" departPos="5.10" departSpeed="0.00" departDelay="5.00" arrival="44.00" arrivalLane="628341438#1_0" arrivalPos="36.44" arrivalSpeed="14.68" duration="38.00" routeLength="366.85" waitingTime="6.00" waitingCount="1" stopTime="0.00" timeLoss="16.12" rerouteNo="0" devices="tripinfo_se4235_3" vType="type1" speedFactor="1.08" vaporized=""/>
    <tripinfo id="nw4235_41" depart="21.00" departLane="-628341438#1_0" departPos="5.10" departSpeed="0.00" departDelay="0.00" arrival="44.00" arrivalLane="619523287#1_0" arrivalPos="83.27" arrivalSpeed="15.76" duration="23.00" routeLength="265.87" waitingTime="0.00" waitingCount="0" stopTime="0.00" timeLoss="4.78" rerouteNo="0" devices="tripinfo_nw4235_41" vType="type1" speedFactor="0.96" vaporized=""/>
    <tripinfo id="nw4235_52" depart="24.00" departLane="-628341438#1_0" departPos="5.10" departSpeed="0.00" departDelay="0.00" arrival="46.00" arrivalLane="619523287#1_0" arrivalPos="83.27" arrivalSpeed="15.87" duration="22.00" routeLength="265.87" waitingTime="0.00" waitingCount="0" stopTime="0.00" timeLoss="5.06" rerouteNo="0" devices="tripinfo_nw4235_52" vType="type1" speedFactor="1.02" vaporized=""/>
    <tripinfo id="se4235_5" depart="10.00" departLane="619523290#0_0" departPos="5.10" departSpeed="0.00" departDelay="8.00" arrival="47.00" arrivalLane="628341438#1_0" arrivalPos="36.44" arrivalSpeed="10.87" duration="37.00" routeLength="366.85" waitingTime="0.00" waitingCount="0" stopTime="0.00" timeLoss="9.02" rerouteNo="0" devices="tripinfo_se4235_5" vType="type1" speedFactor="0.83" vaporized=""/>
    <tripinfo id="se4235_15" depart="17.00" departLane="619523290#0_0" departPos="5.10" departSpeed="0.00" departDelay="10.00" arrival="49.00" arrivalLane="628341438#1_0" arrivalPos="36.44" arrivalSpeed="11.79" duration="32.00" routeLength="366.85" waitingTime="0.00" waitingCount="0" stopTime="0.00" timeLoss="7.21" rerouteNo="0" devices="tripinfo_se4235_15" vType="type1" speedFactor="0.93" vaporized=""/>
    <tripinfo id="north4219_6" depart="2.00" departLane="620377515_0" departPos="5.10" departSpeed="0.00" departDelay="0.00" arrival="52.00" arrivalLane="620377501#0_0" arrivalPos="20.24" arrivalSpeed="17.05" duration="50.00" routeLength="923.62" waitingTime="0.00" waitingCount="0" stopTime="0.00" timeLoss="6.97" rerouteNo="0" devices="tripinfo_north4219_6" vType="type1" speedFactor="1.05" vaporized=""/>
    <tripinfo id="nw4235_65" depart="28.00" departLane="-628341438#1_0" departPos="5.10" departSpeed="0.00" departDelay="0.00" arrival="53.00" arrivalLane="619523287#1_0" arrivalPos="83.27" arrivalSpeed="13.53" duration="25.00" routeLength="265.87" waitingTime="0.00" waitingCount="0" stopTime="0.00" timeLoss="5.51" rerouteNo="0" devices="tripinfo_nw4235_65" vType="type1" speedFactor="0.88" vaporized=""/>
    <tripinfo id="se4235_22" depart="27.00" departLane="619523290#0_0" departPos="5.10" departSpeed="0.00" departDelay="16.00" arrival="57.00" arrivalLane="628341438#1_0" arrivalPos="36.44" arrivalSpeed="13.33" duration="30.00" routeLength="366.85" waitingTime="0.00" waitingCount="0" stopTime="0.00" timeLoss="5.99" rerouteNo="0" devices="tripinfo_se4235_22" vType="type1" speedFactor="0.98" vaporized=""/>
    <tripinfo id="nw4235_93" depart="41.00" departLane="-628341438#1_0" departPos="5.10" departSpeed="0.00" departDelay="0.00" arrival="64.00" arrivalLane="619523287#1_0" arrivalPos="83.27" arrivalSpeed="14.55" duration="23.00" routeLength="265.87" waitingTime="0.00" waitingCount="0" stopTime="0.00" timeLoss="4.20" rerouteNo="0" devices="tripinfo_nw4235_93" vType="type1" speedFactor="0.92" vaporized=""/>
    <tripinfo id="north4221_19" depart="9.00" departLane="-620463733_0" departPos="5.10" departSpeed="0.00" departDelay="0.00" arrival="65.00" arrivalLane="28594060#4_0" arrivalPos="123.22" arrivalSpeed="18.59" duration="56.00" routeLength="885.44" waitingTime="0.00" waitingCount="0" stopTime="0.00" timeLoss="11.39" rerouteNo="0" devices="tripinfo_north4221_19" vType="type1" speedFactor="1.16" vaporized=""/>
    <tripinfo id="north4221_7" depart="2.00" departLane="-620463733_0" departPos="5.10" departSpeed="0.00" departDelay="0.00" arrival="69.00" arrivalLane="28594060#4_0" arrivalPos="123.22" arrivalSpeed="14.54" duration="67.00" routeLength="885.44" waitingTime="0.00" waitingCount="0" stopTime="0.00" timeLoss="9.10" rerouteNo="0" devices="tripinfo_north4221_7" vType="type1" speedFactor="0.89" vaporized=""/>
    <tripinfo id="4220s4219n_36" depart="17.00" departLane="gneE10_0" departPos="5.10" departSpeed="0.00" departDelay="0.00" arrival="69.00" arrivalLane="620377501#0_0" arrivalPos="20.24" arrivalSpeed="15.53" duration="52.00" routeLength="663.15" waitingTime="0.00" waitingCount="0" stopTime="0.00" timeLoss="5.34" rerouteNo="0" devices="tripinfo_4220s4219n_36" vType="type1" speedFactor="0.97" vaporized=""/>
    <tripinfo id="4220s4219n_45" depart="21.00" departLane="gneE10_0" departPos="5.10" departSpeed="0.00" departDelay="0.00" arrival="69.00" arrivalLane="620377501#0_1" arrivalPos="20.24" arrivalSpeed="16.84" duration="48.00" routeLength="663.15" waitingTime="0.00" waitingCount="0" stopTime="0.00" timeLoss="6.24" rerouteNo="0" devices="tripinfo_4220s4219n_45" vType="type1" speedFactor="1.09" vaporized=""/>
    <tripinfo id="south4221_9" depart="3.00" departLane="-28594060#4_0" departPos="5.10" departSpeed="0.00" departDelay="0.00" arrival="70.00" arrivalLane="620463733_0" arrivalPos="133.76" arrivalSpeed="13.97" duration="67.00" routeLength="875.34" waitingTime="0.00" waitingCount="0" stopTime="0.00" timeLoss="5.45" rerouteNo="0" devices="tripinfo_south4221_9" vType="type1" speedFactor="0.86" vaporized=""/>
    <tripinfo id="north4219_28" depart="16.00" departLane="620377515_0" departPos="5.10" departSpeed="0.00" departDelay="1.00" arrival="80.00" arrivalLane="620377501#0_0" arrivalPos="20.24" arrivalSpeed="18.53" duration="64.00" routeLength="923.62" waitingTime="10.00" waitingCount="1" stopTime="0.00" timeLoss="24.75" rerouteNo="0" devices="tripinfo_north4219_28" vType="type1" speedFactor="1.13" vaporized=""/>
    <tripinfo id="4221n4219s_40" depart="20.00" departLane="-620463733_0" departPos="5.10" departSpeed="0.00" departDelay="0.00" arrival="80.00" arrivalLane="547625725_0" arrivalPos="73.62" arrivalSpeed="17.85" duration="60.00" routeLength="599.97" waitingTime="6.00" waitingCount="1" stopTime="0.00" timeLoss="25.80" rerouteNo="0" devices="tripinfo_4221n4219s_40" vType="type1" speedFactor="1.03" vaporized=""/>
    <tripinfo id="north4219_8" depart="5.00" departLane="620377515_0" departPos="5.10" departSpeed="0.00" departDelay="2.00" arrival="81.00" arrivalLane="620377501#0_0" arrivalPos="20.24" arrivalSpeed="14.86" duration="76.00" routeLength="923.62" waitingTime="16.00" waitingCount="1" stopTime="0.00" timeLoss="28.87" rerouteNo="0" devices="tripinfo_north4219_8" vType="type1" speedFactor="0.94" vaporized=""/>
    <tripinfo id="north4219_54" depart="29.00" departLane="620377515_0" departPos="5.10" departSpeed="0.00" departDelay="4.00" arrival="82.00" arrivalLane="620377501#0_1" arrivalPos="20.24" arrivalSpeed="16.52" duration="53.00" routeLength="923.62" waitingTime="0.00" waitingCount="0" stopTime="0.00" timeLoss="9.08" rerouteNo="0" devices="tripinfo_north4219_54" vType="type1" speedFactor="1.00" vaporized=""/>
    <tripinfo id="north4219_24" depart="13.00" departLane="620377515_0" departPos="5.10" departSpeed="0.00" departDelay="0.00" arrival="83.00" arrivalLane="620377501#0_2" arrivalPos="20.24" arrivalSpeed="13.18" duration="70.00" routeLength="923.62" waitingTime="5.00" waitingCount="1" stopTime="0.00" timeLoss="16.70" rerouteNo="0" devices="tripinfo_north4219_24" vType="type1" speedFactor="0.83" vaporized=""/>
    <tripinfo id="north4221_25" depart="13.00" departLane="-620463733_0" departPos="5.10" departSpeed="0.00" departDelay="0.00" arrival="83.00" arrivalLane="28594060#4_0" arrivalPos="123.22" arrivalSpeed="13.48" duration="70.00" routeLength="885.44" waitingTime="0.00" waitingCount="0" stopTime="0.00" timeLoss="10.35" rerouteNo="0" devices="tripinfo_north4221_25" vType="type1" speedFactor="0.87" vaporized=""/>
    <tripinfo id="north4219_38" depart="23.00" departLane="620377515_0" departPos="5.10" departSpeed="0.00" departDelay="5.00" arrival="84.00" arrivalLane="620377501#0_0" arrivalPos="20.24" arrivalSpeed="18.33" duration="61.00" routeLength="923.62" waitingTime="3.00" waitingCount="1" stopTime="0.00" timeLoss="20.51" rerouteNo="0" devices="tripinfo_north4219_38" vType="type1" speedFactor="1.10" vaporized=""/>
    <tripinfo id="north4219_50" depart="26.00" departLane="620377515_0" departPos="5.10" departSpeed="0.00" departDelay="3.00" arrival="85.00" arrivalLane="620377501#0_0" arrivalPos="20.24" arrivalSpeed="13.72" duration="59.00" routeLength="923.62" waitingTime="0.00" waitingCount="0" stopTime="0.00" timeLoss="6.93" rerouteNo="0" devices="tripinfo_north4219_50" vType="type1" speedFactor="0.85" vaporized=""/>
    <tripinfo id="se4235_32" depart="40.00" departLane="619523290#0_0" departPos="5.10" departSpeed="0.00" departDelay="23.00" arrival="87.00" arrivalLane="628341438#1_0" arrivalPos="36.44" arrivalSpeed="13.92" duration="47.00" routeLength="366.85" waitingTime="13.00" waitingCount="1" stopTime="0.00" timeLoss="23.40" rerouteNo="0" devices="tripinfo_se4235_32" vType="type1" speedFactor="1.01" vaporized=""/>
    <tripinfo id="north4219_66" depart="32.00" departLane="620377515_0" departPos="5.10" departSpeed="0.00" departDelay="4.00" arrival="87.00" arrivalLane="620377501#0_0" arrivalPos="20.24" arrivalSpeed="15.00" duration="55.00" routeLength="923.62" waitingTime="0.00" waitingCount="0" stopTime="0.00" timeLoss="6.50" rerouteNo="0" devices="tripinfo_north4219_66" vType="type1" speedFactor="0.91" vaporized=""/>
    <tripinfo id="south4220_14" depart="6.00" departLane="gneE10_0" departPos="5.10" departSpeed="0.00" departDelay="0.00" arrival="88.00" arrivalLane="gneE41_0" arrivalPos="453.36" arrivalSpeed="12.55" duration="82.00" routeLength="896.19" waitingTime="5.00" waitingCount="1" stopTime="0.00" timeLoss="16.61" rerouteNo="0" devices="tripinfo_south4220_14" vType="type1" speedFactor="0.99" vaporized=""/>
    <tripinfo id="north4219_77" depart="36.00" departLane="620377515_0" departPos="5.10" departSpeed="0.00" departDelay="0.00" arrival="88.00" arrivalLane="620377501#0_1" arrivalPos="20.24" arrivalSpeed="15.41" duration="52.00" routeLength="923.62" waitingTime="0.00" waitingCount="0" stopTime="0.00" timeLoss="6.92" rerouteNo="0" devices="tripinfo_north4219_77" vType="type1" speedFactor="0.98" vaporized=""/>
    <tripinfo id="north4221_60" depart="31.00" departLane="-620463733_0" departPos="5.10" departSpeed="0.00" departDelay="5.00" arrival="89.00" arrivalLane="28594060#4_0" arrivalPos="123.22" arrivalSpeed="18.00" duration="58.00" routeLength="885.44" waitingTime="0.00" waitingCount="0" stopTime="0.00" timeLoss="10.57" rerouteNo="0" devices="tripinfo_north4221_60" vType="type1" speedFactor="1.08" vaporized=""/>
    <tripinfo id="north4221_62" depart="34.00" departLane="-620463733_0" departPos="5.10" departSpeed="0.00" departDelay="7.00" arrival="96.00" arrivalLane="28594060#4_0" arrivalPos="123.22" arrivalSpeed="16.34" duration="62.00" routeLength="885.44" waitingTime="0.00" waitingCount="0" stopTime="0.00" timeLoss="10.56" rerouteNo="0" devices="tripinfo_north4221_62" vType="type1" speedFactor="1.02" vaporized=""/>
    <tripinfo id="north4221_68" depart="37.00" departLane="-620463733_0" departPos="5.10" departSpeed="0.00" departDelay="6.00" arrival="96.00" arrivalLane="28594060#4_1" arrivalPos="123.22" arrivalSpeed="16.44" duration="59.00" routeLength="885.44" waitingTime="0.00" waitingCount="0" stopTime="0.00" timeLoss="9.76" rerouteNo="0" devices="tripinfo_north4221_68" vType="type1" speedFactor="1.04" vaporized=""/>
    <tripinfo id="south4219_18" depart="8.00" departLane="620377506_0" departPos="5.10" departSpeed="0.00" departDelay="0.00" arrival="98.00" arrivalLane="547625725_0" arrivalPos="73.62" arrivalSpeed="16.96" duration="90.00" routeLength="808.30" waitingTime="27.00" waitingCount="1" stopTime="0.00" timeLoss="38.70" rerouteNo="0" devices="tripinfo_south4219_18" vType="type1" speedFactor="0.94" vaporized=""/>
    <tripinfo id="south4219_46" depart="22.00" departLane="620377506_0" departPos="5.10" departSpeed="0.00" departDelay="0.00" arrival="98.00" arrivalLane="547625725_1" arrivalPos="73.62" arrivalSpeed="18.67" duration="76.00" routeLength="808.30" waitingTime="15.00" waitingCount="1" stopTime="0.00" timeLoss="27.71" rerouteNo="0" devices="tripinfo_south4219_46" vType="type1" speedFactor="1.00" vaporized=""/>
    <tripinfo id="4235n4219n_27" depart="13.00" departLane="-628341438#1_0" departPos="5.10" departSpeed="0.00" departDelay="0.00" arrival="99.00" arrivalLane="620377501#0_0" arrivalPos="20.24" arrivalSpeed="15.16" duration="86.00" routeLength="473.89" waitingTime="40.00" waitingCount="2" stopTime="0.00" timeLoss="55.28" rerouteNo="0" devices="tripinfo_4235n4219n_27" vType="type1" speedFactor="0.95" vaporized=""/>
    <tripinfo id="south4219_74" depart="33.00" departLane="620377506_0" departPos="5.10" departSpeed="0.00" departDelay="0.00" arrival="99.00" arrivalLane="547625725_0" arrivalPos="73.62" arrivalSpeed="18.16" duration="66.00" routeLength="808.30" waitingTime="3.00" waitingCount="1" stopTime="0.00" timeLoss="16.48" rerouteNo="0" devices="tripinfo_south4219_74" vType="type1" speedFactor="0.96" vaporized=""/>
    <tripinfo id="south4219_84" depart="39.00" departLane="620377506_0" departPos="5.10" departSpeed="0.00" departDelay="1.00" arrival="99.00" arrivalLane="547625725_1" arrivalPos="73.62" arrivalSpeed="18.29" duration="60.00" routeLength="808.30" waitingTime="5.00" waitingCount="1" stopTime="0.00" timeLoss="18.46" rerouteNo="0" devices="tripinfo_south4219_84" vType="type1" speedFactor="1.15" vaporized=""/>
    <tripinfo id="4235e4219n_1" depart="0.00" departLane="619523290#0_0" departPos="5.10" departSpeed="0.00" departDelay="0.00" arrival="100.00" arrivalLane="620377501#0_0" arrivalPos="20.24" arrivalSpeed="14.94" duration="100.00" routeLength="724.98" waitingTime="34.00" waitingCount="2" stopTime="0.00" timeLoss="52.69" rerouteNo="0" devices="tripinfo_4235e4219n_1" vType="type1" speedFactor="0.94" vaporized=""/>
    <tripinfo id="4235e4219n_11" depart="11.00" departLane="619523290#0_0" departPos="5.10" departSpeed="0.00" departDelay="7.00" arrival="101.00" arrivalLane="620377501#0_0" arrivalPos="20.24" arrivalSpeed="16.85" duration="90.00" routeLength="724.98" waitingTime="28.00" waitingCount="2" stopTime="0.00" timeLoss="47.15" rerouteNo="0" devices="tripinfo_4235e4219n_11" vType="type1" speedFactor="1.03" vaporized=""/>
    <tripinfo id="south4219_76" depart="36.00" departLane="620377506_0" departPos="5.10" departSpeed="0.00" departDelay="1.00" arrival="101.00" arrivalLane="547625725_1" arrivalPos="73.62" arrivalSpeed="19.90" duration="65.00" routeLength="808.30" waitingTime="4.00" waitingCount="1" stopTime="0.00" timeLoss="18.45" rerouteNo="0" devices="tripinfo_south4219_76" vType="type1" speedFactor="1.03" vaporized=""/>
    <tripinfo id="south4219_96" depart="43.00" departLane="620377506_0" departPos="5.10" departSpeed="0.00" departDelay="1.00" arrival="101.00" arrivalLane="547625725_0" arrivalPos="73.62" arrivalSpeed="19.27" duration="58.00" routeLength="808.30" waitingTime="0.00" waitingCount="0" stopTime="0.00" timeLoss="10.81" rerouteNo="0" devices="tripinfo_south4219_96" vType="type1" speedFactor="1.01" vaporized=""/>
    <tripinfo id="4235e4219n_26" depart="31.00" departLane="619523290#0_0" departPos="5.10" departSpeed="0.00" departDelay="18.00" arrival="102.00" arrivalLane="620377501#0_0" arrivalPos="20.24" arrivalSpeed="14.30" duration="71.00" routeLength="724.98" waitingTime="10.00" waitingCount="1" stopTime="0.00" timeLoss="22.87" rerouteNo="0" devices="tripinfo_4235e4219n_26" vType="type1" speedFactor="0.92" vaporized=""/>
    <tripinfo id="se4221_94" depart="41.00" departLane="-28594060#4_0" departPos="5.10" departSpeed="0.00" departDelay="0.00" arrival="102.00" arrivalLane="28573015#6_0" arrivalPos="68.82" arrivalSpeed="18.17" duration="61.00" routeLength="955.26" waitingTime="0.00" waitingCount="0" stopTime="0.00" timeLoss="7.77" rerouteNo="0" devices="tripinfo_se4221_94" vType="type1" speedFactor="1.09" vaporized=""/>
    <tripinfo id="4235n4219n_98" depart="44.00" departLane="-628341438#1_0" departPos="5.10" departSpeed="0.00" departDelay="2.00" arrival="103.00" arrivalLane="620377501#0_0" arrivalPos="20.24" arrivalSpeed="17.01" duration="59.00" routeLength="473.89" waitingTime="12.00" waitingCount="2" stopTime="0.00" timeLoss="32.98" rerouteNo="0" devices="tripinfo_4235n4219n_98" vType="type1" speedFactor="1.12" vaporized=""/>
    <tripinfo id="north4221_72" depart="40.00" departLane="-620463733_0" departPos="5.10" departSpeed="0.00" departDelay="8.00" arrival="106.00" arrivalLane="28594060#4_0" arrivalPos="123.22" arrivalSpeed="15.66" duration="66.00" routeLength="885.44" waitingTime="0.00" waitingCount="0" stopTime="0.00" timeLoss="10.94" rerouteNo="0" devices="tripinfo_north4221_72" vType="type1" speedFactor="0.94" vaporized=""/>
    <tripinfo id="north4221_85" depart="43.00" departLane="-620463733_0" departPos="5.10" departSpeed="0.00" departDelay="5.00" arrival="106.00" arrivalLane="28594060#4_1" arrivalPos="123.22" arrivalSpeed="15.40" duration="63.00" routeLength="885.44" waitingTime="0.00" waitingCount="0" stopTime="0.00" timeLoss="9.86" rerouteNo="0" devices="tripinfo_north4221_85" vType="type1" speedFactor="0.98" vaporized=""/>
    <tripinfo id="4235e4219n_29" depart="34.00" departLane="619523290#0_0" departPos="5.10" departSpeed="0.00" departDelay="19.00" arrival="107.00" arrivalLane="620377501#0_0" arrivalPos="20.24" arrivalSpeed="15.46" duration="73.00" routeLength="724.98" waitingTime="12.00" waitingCount="1" stopTime="0.00" timeLoss="25.58" rerouteNo="0" devices="tripinfo_4235e4219n_29" vType="type1" speedFactor="0.93" vaporized=""/>
    <tripinfo id="4219n4235w_31" depart="19.00" departLane="620377515_0" departPos="5.10" departSpeed="0.00" departDelay="3.00" arrival="107.00" arrivalLane="619523287#1_0" arrivalPos="83.27" arrivalSpeed="18.06" duration="88.00" routeLength="1174.94" waitingTime="12.00" waitingCount="1" stopTime="0.00" timeLoss="36.01" rerouteNo="0" devices="tripinfo_4219n4235w_31" vType="type1" speedFactor="1.15" vaporized=""/>
    <tripinfo id="4235e4219n_42" depart="50.00" departLane="619523290#0_0" departPos="5.10" departSpeed="0.00" departDelay="29.00" arrival="109.00" arrivalLane="620377501#0_0" arrivalPos="20.24" arrivalSpeed="17.87" duration="59.00" routeLength="724.98" waitingTime="0.00" waitingCount="0" stopTime="0.00" timeLoss="19.04" rerouteNo="0" devices="tripinfo_4235e4219n_42" vType="type1" speedFactor="1.09" vaporized=""/>
    <tripinfo id="4235e4219n_33" depart="41.00" departLane="619523290#0_0" departPos="5.10" departSpeed="0.00" departDelay="24.00" arrival="110.00" arrivalLane="620377501#0_1" arrivalPos="20.24" arrivalSpeed="18.52" duration="69.00" routeLength="724.98" waitingTime="14.00" waitingCount="1" stopTime="0.00" timeLoss="31.70" rerouteNo="0" devices="tripinfo_4235e4219n_33" vType="type1" speedFactor="1.17" vaporized=""/>
    <tripinfo id="4221n4220s_88" depart="46.00" departLane="-620463733_0" departPos="5.10" departSpeed="0.00" departDelay="8.00" arrival="111.00" arrivalLane="gneE41_0" arrivalPos="453.36" arrivalSpeed="12.86" duration="65.00" routeLength="868.52" waitingTime="0.00" waitingCount="0" stopTime="0.00" timeLoss="7.37" rerouteNo="0" devices="tripinfo_4221n4220s_88" vType="type1" speedFactor="1.01" vaporized=""/>
    <tripinfo id="north4221_89" depart="49.00" departLane="-620463733_0" departPos="5.10" departSpeed="0.00" departDelay="10.00" arrival="111.00" arrivalLane="28594060#4_0" arrivalPos="123.22" arrivalSpeed="16.27" duration="62.00" routeLength="885.44" waitingTime="0.00" waitingCount="0" stopTime="0.00" timeLoss="11.47" rerouteNo="0" devices="tripinfo_north4221_89" vType="type1" speedFactor="1.02" vaporized=""/>
    <tripinfo id="south4219_133" depart="59.00" departLane="620377506_0" departPos="5.10" departSpeed="0.00" departDelay="0.00" arrival="111.00" arrivalLane="547625725_0" arrivalPos="73.62" arrivalSpeed="22.94" duration="52.00" routeLength="808.30" waitingTime="0.00" waitingCount="0" stopTime="0.00" timeLoss="6.18" rerouteNo="0" devices="tripinfo_south4219_133" vType="type1" speedFactor="1.04" vaporized=""/>
    <tripinfo id="se4235_51" depart="68.00" departLane="619523290#0_0" departPos="5.10" departSpeed="0.00" departDelay="44.00" arrival="112.00" arrivalLane="628341438#1_0" arrivalPos="36.44" arrivalSpeed="15.09" duration="44.00" routeLength="366.85" waitingTime="13.00" waitingCount="1" stopTime="0.00" timeLoss="24.42" rerouteNo="0" devices="tripinfo_se4235_51" vType="type1" speedFactor="1.17" vaporized=""/>
    <tripinfo id="4235e4219n_39" depart="47.00" departLane="619523290#0_0" departPos="5.10" departSpeed="0.00" departDelay="28.00" arrival="114.00" arrivalLane="620377501#0_0" arrivalPos="20.24" arrivalSpeed="14.83" duration="67.00" routeLength="724.98" waitingTime="6.00" waitingCount="1" stopTime="0.00" timeLoss="18.38" rerouteNo="0" devices="tripinfo_4235e4219n_39" vType="type1" speedFactor="0.90" vaporized=""/>
    <tripinfo id="south4220_55" depart="25.00" departLane="gneE10_0" departPos="5.10" departSpeed="0.00" departDelay="0.00" arrival="115.00" arrivalLane="gneE41_0" arrivalPos="453.36" arrivalSpeed="13.51" duration="90.00" routeLength="896.19" waitingTime="12.00" waitingCount="2" stopTime="0.00" timeLoss="24.89" rerouteNo="0" devices="tripinfo_south4220_55" vType="type1" speedFactor="1.00" vaporized=""/>
    <tripinfo id="4235e4219n_47" depart="59.00" departLane="619523290#0_0" departPos="5.10" departSpeed="0.00" departDelay="37.00" arrival="118.00" arrivalLane="620377501#0_0" arrivalPos="20.24" arrivalSpeed="14.39" duration="59.00" routeLength="724.98" waitingTime="0.00" waitingCount="0" stopTime="0.00" timeLoss="10.53" rerouteNo="0" devices="tripinfo_4235e4219n_47" vType="type1" speedFactor="0.90" vaporized=""/>
    <tripinfo id="4235e4219n_53" depart="69.00" departLane="619523290#0_0" departPos="5.10" departSpeed="0.00" departDelay="45.00" arrival="121.00" arrivalLane="620377501#0_0" arrivalPos="20.24" arrivalSpeed="17.36" duration="52.00" routeLength="724.98" waitingTime="0.00" waitingCount="0" stopTime="0.00" timeLoss="11.85" rerouteNo="0" devices="tripinfo_4235e4219n_53" vType="type1" speedFactor="1.10" vaporized=""/>
    <tripinfo id="south4220_101" depart="45.00" departLane="gneE10_0" departPos="5.10" departSpeed="0.00" departDelay="2.00" arrival="122.00" arrivalLane="gneE41_0" arrivalPos="453.36" arrivalSpeed="13.12" duration="77.00" routeLength="896.19" waitingTime="0.00" waitingCount="0" stopTime="0.00" timeLoss="8.64" rerouteNo="0" devices="tripinfo_south4220_101" vType="type1" speedFactor="0.96" vaporized=""/>
    <tripinfo id="4221w4220s_107" depart="44.00" departLane="-28573015#6_0" departPos="5.10" departSpeed="0.00" departDelay="0.00" arrival="124.00" arrivalLane="gneE41_0" arrivalPos="453.36" arrivalSpeed="13.90" duration="80.00" routeLength="955.32" waitingTime="4.00" waitingCount="1" stopTime="0.00" timeLoss="18.33" rerouteNo="0" devices="tripinfo_4221w4220s_107" vType="type1" speedFactor="1.03" vaporized=""/>
    <tripinfo id="4221n4219s_136" depart="67.00" departLane="-620463733_0" departPos="5.10" departSpeed="0.00" departDelay="7.00" arrival="126.00" arrivalLane="547625725_0" arrivalPos="73.62" arrivalSpeed="18.28" duration="59.00" routeLength="599.97" waitingTime="8.00" waitingCount="1" stopTime="0.00" timeLoss="27.85" rerouteNo="0" devices="tripinfo_4221n4219s_136" vType="type1" speedFactor="1.12" vaporized=""/>
    <tripinfo id="4235e4219n_56" depart="72.00" departLane="619523290#0_0" departPos="5.10" departSpeed="0.00" departDelay="47.00" arrival="127.00" arrivalLane="620377501#0_0" arrivalPos="20.24" arrivalSpeed="14.49" duration="55.00" routeLength="724.98" waitingTime="0.00" waitingCount="0" stopTime="0.00" timeLoss="6.36" rerouteNo="0" devices="tripinfo_4235e4219n_56" vType="type1" speedFactor="0.90" vaporized=""/>
    <tripinfo id="north4221_134" depart="64.00" departLane="-620463733_0" departPos="5.10" departSpeed="0.00" departDelay="5.00" arrival="127.00" arrivalLane="28594060#4_0" arrivalPos="123.22" arrivalSpeed="20.06" duration="63.00" routeLength="885.44" waitingTime="3.00" waitingCount="1" stopTime="0.00" timeLoss="20.42" rerouteNo="0" devices="tripinfo_north4221_134" vType="type1" speedFactor="1.23" vaporized=""/>
    <tripinfo id="south4221_118" depart="51.00" departLane="-28594060#4_0" departPos="5.10" departSpeed="0.00" departDelay="0.00" arrival="128.00" arrivalLane="620463733_0" arrivalPos="133.76" arrivalSpeed="16.29" duration="77.00" routeLength="875.34" waitingTime="12.00" waitingCount="1" stopTime="0.00" timeLoss="23.70" rerouteNo="0" devices="tripinfo_south4221_118" vType="type1" speedFactor="0.99" vaporized=""/>
    <tripinfo id="4221n4219s_167" depart="79.00" departLane="-620463733_0" departPos="5.10" departSpeed="0.00" departDelay="5.00" arrival="128.00" arrivalLane="547625725_0" arrivalPos="73.62" arrivalSpeed="17.15" duration="49.00" routeLength="599.97" waitingTime="0.00" waitingCount="0" stopTime="0.00" timeLoss="15.06" rerouteNo="0" devices="tripinfo_4221n4219s_167" vType="type1" speedFactor="1.03" vaporized=""/>
    <tripinfo id="south4220_109" depart="51.00" departLane="gneE10_0" departPos="5.10" departSpeed="0.00" departDelay="6.00" arrival="130.00" arrivalLane="gneE41_0" arrivalPos="453.36" arrivalSpeed="12.07" duration="79.00" routeLength="896.19" waitingTime="0.00" waitingCount="0" stopTime="0.00" timeLoss="11.21" rerouteNo="0" devices="tripinfo_south4220_109" vType="type1" speedFactor="0.96" vaporized=""/>
    <tripinfo id="south4221_122" depart="54.00" departLane="-28594060#4_0" departPos="5.10" departSpeed="0.00" departDelay="0.00" arrival="130.00" arrivalLane="620463733_0" arrivalPos="133.76" arrivalSpeed="16.37" duration="76.00" routeLength="875.34" waitingTime="11.00" waitingCount="1" stopTime="0.00" timeLoss="24.46" rerouteNo="0" devices="tripinfo_south4221_122" vType="type1" speedFactor="1.03" vaporized=""/>
    <tripinfo id="4235e4219n_63" depart="75.00" departLane="619523290#0_0" departPos="5.10" departSpeed="0.00" departDelay="48.00" arrival="131.00" arrivalLane="620377501#0_0" arrivalPos="20.24" arrivalSpeed="15.83" duration="56.00" routeLength="724.98" waitingTime="0.00" waitingCount="0" stopTime="0.00" timeLoss="11.14" rerouteNo="0" devices="tripinfo_4235e4219n_63" vType="type1" speedFactor="0.99" vaporized=""/>
    <tripinfo id="south4220_116" depart="60.00" departLane="gneE10_0" departPos="5.10" departSpeed="0.00" departDelay="9.00" arrival="131.00" arrivalLane="gneE41_0" arrivalPos="453.36" arrivalSpeed="14.94" duration="71.00" routeLength="896.19" waitingTime="0.00" waitingCount="0" stopTime="0.00" timeLoss="16.12" rerouteNo="0" devices="tripinfo_south4220_116" vType="type1" speedFactor="1.18" vaporized=""/>
    <tripinfo id="north4221_117" depart="58.00" departLane="-620463733_0" departPos="5.10" departSpeed="0.00" departDelay="7.00" arrival="131.00" arrivalLane="28594060#4_0" arrivalPos="123.22" arrivalSpeed="16.06" duration="73.00" routeLength="885.44" waitingTime="6.00" waitingCount="1" stopTime="0.00" timeLoss="21.68" rerouteNo="0" devices="tripinfo_north4221_117" vType="type1" speedFactor="1.00" vaporized=""/>
    <tripinfo id="south4221_130" depart="57.00" departLane="-28594060#4_0" departPos="5.10" departSpeed="0.00" departDelay="0.00" arrival="131.00" arrivalLane="620463733_0" arrivalPos="133.76" arrivalSpeed="16.97" duration="74.00" routeLength="875.34" waitingTime="10.00" waitingCount="1" stopTime="0.00" timeLoss="23.03" rerouteNo="0" devices="tripinfo_south4221_130" vType="type1" speedFactor="1.03" vaporized=""/>