<?xml version="1.0" encoding="UTF-8"?>

<!-- generated on 08/20/20 11:42:44 by Eclipse SUMO GUI Version 1.5.0
<configuration xmlns:xsi="http://www.w3.org/2001/XMLSchema-instance" xsi:noNamespaceSchemaLocation="http://sumo.dlr.de/xsd/sumoConfiguration.xsd">

    <input>
        <net-file value="simulation/osm.net.xml"/>
        <route-files value="simulation/osm.rou.xml"/>
        <additional-files value="simulation/osm.det.xml"/>
    </input>

    <output>
        <queue-output value="output/queue.xml"/>
        <summary-output value="output/summary.xml"/>
        <tripinfo-output value="output/tripinfoEDF.xml"/>
    </output>

    <time>
        <begin value="0"/>
    </time>

    <processing>
        <no-internal-links value="true"/>
    </processing>

    <report>
        <verbose value="true"/>
        <no-step-log value="true"/>
    </report>

    <traci_server>
        <remote-port value="56570"/>
    </traci_server>

</configuration>
-->

<queue-export xmlns:xsi="http://www.w3.org/2001/XMLSchema-instance" xsi:noNamespaceSchemaLocation="http://sumo.dlr.de/xsd/queue_file.xsd">
    <data timestep="0.00">
        <lanes/>
    </data>
    <data timestep="1.00">
        <lanes/>
    </data>
    <data timestep="2.00">
        <lanes/>
    </data>
    <data timestep="3.00">
        <lanes/>
    </data>
    <data timestep="4.00">
        <lanes/>
    </data>
    <data timestep="5.00">
        <lanes/>
    </data>
    <data timestep="6.00">
        <lanes/>
    </data>
    <data timestep="7.00">
        <lanes/>
    </data>
    <data timestep="8.00">
        <lanes/>
    </data>
    <data timestep="9.00">
        <lanes/>
    </data>
    <data timestep="10.00">
        <lanes/>
    </data>
    <data timestep="11.00">
        <lanes/>
    </data>
    <data timestep="12.00">
        <lanes/>
    </data>
    <data timestep="13.00">
        <lanes/>
    </data>
    <data timestep="14.00">
        <lanes/>
    </data>
    <data timestep="15.00">
        <lanes/>
    </data>
    <data timestep="16.00">
        <lanes>
            <lane id="-61645695_0" queueing_time="0.00" queueing_length="0.00" queueing_length_experimental="6.12"/>
        </lanes>
    </data>
    <data timestep="17.00">
        <lanes>
            <lane id="-61645695_0" queueing_time="0.00" queueing_length="0.00" queueing_length_experimental="6.01"/>
        </lanes>
    </data>
    <data timestep="18.00">
        <lanes>
            <lane id="-61645695_0" queueing_time="1.00" queueing_length="6.00" queueing_length_experimental="6.00"/>
        </lanes>
    </data>
    <data timestep="19.00">
        <lanes>
            <lane id="-61645695_0" queueing_time="2.00" queueing_length="6.00" queueing_length_experimental="6.00"/>
        </lanes>
    </data>
    <data timestep="20.00">
        <lanes>
            <lane id="-61645695_0" queueing_time="3.00" queueing_length="6.00" queueing_length_experimental="6.00"/>
        </lanes>
    </data>
    <data timestep="21.00">
        <lanes>
            <lane id="-61645695_0" queueing_time="4.00" queueing_length="6.00" queueing_length_experimental="6.00"/>
            <lane id="gneE10_0" queueing_time="1.00" queueing_length="5.75" queueing_length_experimental="5.75"/>
        </lanes>
    </data>
    <data timestep="22.00">
        <lanes>
            <lane id="-61645695_0" queueing_time="5.00" queueing_length="6.00" queueing_length_experimental="6.00"/>
            <lane id="-628341438#0_0" queueing_time="1.00" queueing_length="10.58" queueing_length_experimental="10.58"/>
            <lane id="gneE10_0" queueing_time="2.00" queueing_length="5.74" queueing_length_experimental="5.74"/>
        </lanes>
    </data>
    <data timestep="23.00">
        <lanes>
            <lane id="-61645695_0" queueing_time="6.00" queueing_length="6.00" queueing_length_experimental="6.00"/>
            <lane id="-628341438#0_0" queueing_time="2.00" queueing_length="10.54" queueing_length_experimental="10.54"/>
            <lane id="gneE10_0" queueing_time="3.00" queueing_length="5.74" queueing_length_experimental="5.74"/>
        </lanes>
    </data>
    <data timestep="24.00">
        <lanes>
            <lane id="-61645695_0" queueing_time="7.00" queueing_length="6.00" queueing_length_experimental="6.00"/>
            <lane id="-628341438#0_0" queueing_time="3.00" queueing_length="10.54" queueing_length_experimental="10.54"/>
            <lane id="gneE10_0" queueing_time="4.00" queueing_length="5.74" queueing_length_experimental="5.74"/>
        </lanes>
    </data>
    <data timestep="25.00">
        <lanes>
            <lane id="-61645695_0" queueing_time="8.00" queueing_length="6.00" queueing_length_experimental="6.00"/>
            <lane id="-628341438#0_0" queueing_time="4.00" queueing_length="10.54" queueing_length_experimental="10.54"/>
            <lane id="gneE10_0" queueing_time="5.00" queueing_length="5.74" queueing_length_experimental="5.74"/>
        </lanes>
    </data>
    <data timestep="26.00">
        <lanes>
            <lane id="-61645695_0" queueing_time="9.00" queueing_length="6.00" queueing_length_experimental="6.00"/>
            <lane id="-628341438#0_0" queueing_time="5.00" queueing_length="10.54" queueing_length_experimental="10.54"/>
            <lane id="gneE10_0" queueing_time="6.00" queueing_length="5.74" queueing_length_experimental="5.74"/>
        </lanes>
    </data>
    <data timestep="27.00">
        <lanes>
            <lane id="-61645695_0" queueing_time="10.00" queueing_length="6.00" queueing_length_experimental="6.00"/>
            <lane id="-628341438#0_0" queueing_time="6.00" queueing_length="10.54" queueing_length_experimental="10.54"/>
            <lane id="gneE10_0" queueing_time="7.00" queueing_length="5.74" queueing_length_experimental="5.74"/>
        </lanes>
    </data>
    <data timestep="28.00">
        <lanes>
            <lane id="-61645695_0" queueing_time="11.00" queueing_length="6.00" queueing_length_experimental="6.00"/>
            <lane id="-628341438#0_0" queueing_time="7.00" queueing_length="10.54" queueing_length_experimental="18.30"/>
            <lane id="620377512_0" queueing_time="0.00" queueing_length="0.00" queueing_length_experimental="6.09"/>
        </lanes>
    </data>
    <data timestep="29.00">
        <lanes>
            <lane id="-61645695_0" queueing_time="12.00" queueing_length="6.00" queueing_length_experimental="6.00"/>
            <lane id="-628341438#0_0" queueing_time="8.00" queueing_length="10.54" queueing_length_experimental="18.15"/>
            <lane id="620377512_0" queueing_time="1.00" queueing_length="6.04" queueing_length_experimental="6.04"/>
        </lanes>
    </data>
    <data timestep="30.00">
        <lanes>
            <lane id="-61645695_0" queueing_time="13.00" queueing_length="6.00" queueing_length_experimental="6.00"/>
            <lane id="-628341438#0_0" queueing_time="9.00" queueing_length="18.06" queueing_length_experimental="18.06"/>
            <lane id="619523288_3" queueing_time="0.00" queueing_length="0.00" queueing_length_experimental="6.24"/>
            <lane id="620377512_0" queueing_time="2.00" queueing_length="6.02" queueing_length_experimental="6.02"/>
        </lanes>
    </data>
    <data timestep="31.00">
        <lanes>
            <lane id="-61645695_0" queueing_time="14.00" queueing_length="6.00" queueing_length_experimental="6.00"/>
            <lane id="-628341438#0_0" queueing_time="10.00" queueing_length="18.05" queueing_length_experimental="18.05"/>
            <lane id="122089525.34_0" queueing_time="0.00" queueing_length="0.00" queueing_length_experimental="6.12"/>
            <lane id="619523288_3" queueing_time="0.00" queueing_length="0.00" queueing_length_experimental="6.11"/>
            <lane id="620377512_0" queueing_time="3.00" queueing_length="6.01" queueing_length_experimental="6.01"/>
        </lanes>
    </data>
    <data timestep="32.00">
        <lanes>
            <lane id="-61645695_0" queueing_time="15.00" queueing_length="6.00" queueing_length_experimental="6.00"/>
            <lane id="-628341438#0_0" queueing_time="11.00" queueing_length="18.05" queueing_length_experimental="18.05"/>
            <lane id="122089525.34_0" queueing_time="1.00" queueing_length="6.03" queueing_length_experimental="6.03"/>
            <lane id="619523288_3" queueing_time="1.00" queueing_length="6.02" queueing_length_experimental="6.02"/>
            <lane id="620377512_0" queueing_time="4.00" queueing_length="6.00" queueing_length_experimental="6.00"/>
            <lane id="620377512_1" queueing_time="0.00" queueing_length="0.00" queueing_length_experimental="6.13"/>
        </lanes>
    </data>
    <data timestep="33.00">
        <lanes>
            <lane id="-61645695_0" queueing_time="16.00" queueing_length="6.00" queueing_length_experimental="6.00"/>
            <lane id="-628341438#0_0" queueing_time="12.00" queueing_length="25.58" queueing_length_experimental="18.04"/>
            <lane id="122089525.34_0" queueing_time="2.00" queueing_length="6.00" queueing_length_experimental="6.00"/>
            <lane id="619523288_3" queueing_time="2.00" queueing_length="6.01" queueing_length_experimental="6.01"/>
            <lane id="620377512_0" queueing_time="5.00" queueing_length="6.00" queueing_length_experimental="6.00"/>
            <lane id="620377512_1" queueing_time="1.00" queueing_length="6.04" queueing_length_experimental="6.04"/>
        </lanes>
    </data>
    <data timestep="34.00">
        <lanes>
            <lane id="-61645695_0" queueing_time="17.00" queueing_length="6.00" queueing_length_experimental="6.00"/>
            <lane id="-628341438#0_0" queueing_time="13.00" queueing_length="25.56" queueing_length_experimental="18.04"/>
            <lane id="122089525.34_0" queueing_time="3.00" queueing_length="6.00" queueing_length_experimental="6.00"/>
            <lane id="619523288_3" queueing_time="3.00" queueing_length="6.00" queueing_length_experimental="6.00"/>
            <lane id="620377512_0" queueing_time="6.00" queueing_length="6.00" queueing_length_experimental="6.00"/>
            <lane id="620377512_1" queueing_time="2.00" queueing_length="6.02" queueing_length_experimental="6.02"/>
        </lanes>
    </data>
    <data timestep="35.00">
        <lanes>
            <lane id="-61645695_0" queueing_time="18.00" queueing_length="6.00" queueing_length_experimental="6.00"/>
            <lane id="-628341438#0_0" queueing_time="14.00" queueing_length="25.55" queueing_length_experimental="18.04"/>
            <lane id="-628341438#1_0" queueing_time="0.00" queueing_length="0.00" queueing_length_experimental="12.45"/>
            <lane id="122089525.34_0" queueing_time="4.00" queueing_length="6.00" queueing_length_experimental="6.00"/>
            <lane id="122089525.34_1" queueing_time="0.00" queueing_length="0.00" queueing_length_experimental="6.14"/>
            <lane id="619523288_3" queueing_time="4.00" queueing_length="6.00" queueing_length_experimental="6.00"/>
            <lane id="620377512_0" queueing_time="7.00" queueing_length="6.00" queueing_length_experimental="6.00"/>
            <lane id="620377512_1" queueing_time="3.00" queueing_length="6.00" queueing_length_experimental="6.00"/>
            <lane id="gneE10_0" queueing_time="0.00" queueing_length="0.00" queueing_length_experimental="5.89"/>
        </lanes>
    </data>
    <data timestep="36.00">
        <lanes>
            <lane id="-61645695_0" queueing_time="19.00" queueing_length="6.00" queueing_length_experimental="6.00"/>
            <lane id="-628341438#0_0" queueing_time="15.00" queueing_length="25.55" queueing_length_experimental="18.04"/>
            <lane id="-628341438#1_0" queueing_time="0.00" queueing_length="0.00" queueing_length_experimental="12.19"/>
            <lane id="122089525.34_0" queueing_time="5.00" queueing_length="6.00" queueing_length_experimental="6.00"/>
            <lane id="122089525.34_1" queueing_time="1.00" queueing_length="6.07" queueing_length_experimental="6.07"/>
            <lane id="619523288_3" queueing_time="5.00" queueing_length="6.00" queueing_length_experimental="6.00"/>
            <lane id="620377512_0" queueing_time="8.00" queueing_length="6.00" queueing_length_experimental="6.00"/>
            <lane id="620377512_1" queueing_time="4.00" queueing_length="6.00" queueing_length_experimental="6.00"/>
            <lane id="gneE10_0" queueing_time="0.00" queueing_length="0.00" queueing_length_experimental="5.78"/>
        </lanes>
    </data>
    <data timestep="37.00">
        <lanes>
            <lane id="-61645695_0" queueing_time="20.00" queueing_length="6.00" queueing_length_experimental="6.00"/>
            <lane id="-628341438#0_0" queueing_time="16.00" queueing_length="25.54" queueing_length_experimental="18.04"/>
            <lane id="-628341438#1_0" queueing_time="0.00" queueing_length="0.00" queueing_length_experimental="12.06"/>
            <lane id="122089525.34_0" queueing_time="6.00" queueing_length="6.00" queueing_length_experimental="6.00"/>
            <lane id="122089525.34_1" queueing_time="2.00" queueing_length="6.01" queueing_length_experimental="6.01"/>
            <lane id="619523288_3" queueing_time="6.00" queueing_length="6.00" queueing_length_experimental="6.00"/>
            <lane id="620377512_0" queueing_time="9.00" queueing_length="6.00" queueing_length_experimental="6.00"/>
            <lane id="620377512_1" queueing_time="5.00" queueing_length="6.00" queueing_length_experimental="6.00"/>
            <lane id="gneE10_0" queueing_time="1.00" queueing_length="5.75" queueing_length_experimental="5.75"/>
        </lanes>
    </data>
    <data timestep="38.00">
        <lanes>
            <lane id="-61645695_0" queueing_time="21.00" queueing_length="6.00" queueing_length_experimental="6.00"/>
            <lane id="-628341438#0_0" queueing_time="17.00" queueing_length="25.54" queueing_length_experimental="18.04"/>
            <lane id="-628341438#1_0" queueing_time="1.00" queueing_length="12.04" queueing_length_experimental="12.04"/>
            <lane id="122089525.34_0" queueing_time="7.00" queueing_length="6.00" queueing_length_experimental="6.00"/>
            <lane id="122089525.34_1" queueing_time="3.00" queueing_length="6.00" queueing_length_experimental="6.00"/>
            <lane id="619523288_3" queueing_time="7.00" queueing_length="6.00" queueing_length_experimental="13.74"/>
            <lane id="620377512_0" queueing_time="10.00" queueing_length="6.00" queueing_length_experimental="6.00"/>
            <lane id="620377512_1" queueing_time="6.00" queueing_length="6.00" queueing_length_experimental="6.00"/>
            <lane id="gneE10_0" queueing_time="2.00" queueing_length="5.74" queueing_length_experimental="5.74"/>
        </lanes>
    </data>
    <data timestep="39.00">
        <lanes>
            <lane id="-61645695_0" queueing_time="22.00" queueing_length="6.00" queueing_length_experimental="6.00"/>
            <lane id="-628341438#0_0" queueing_time="18.00" queueing_length="25.54" queueing_length_experimental="18.04"/>
            <lane id="-628341438#1_0" queueing_time="2.00" queueing_length="12.03" queueing_length_experimental="12.03"/>
            <lane id="122089525.34_0" queueing_time="8.00" queueing_length="6.00" queueing_length_experimental="6.00"/>
            <lane id="122089525.34_1" queueing_time="4.00" queueing_length="6.00" queueing_length_experimental="6.00"/>
            <lane id="619523288_3" queueing_time="8.00" queueing_length="6.00" queueing_length_experimental="13.59"/>
            <lane id="620377506.61_0" queueing_time="0.00" queueing_length="0.00" queueing_length_experimental="6.59"/>
            <lane id="620377512_0" queueing_time="11.00" queueing_length="6.00" queueing_length_experimental="13.64"/>
            <lane id="620377512_1" queueing_time="7.00" queueing_length="6.00" queueing_length_experimental="6.00"/>
            <lane id="gneE10_0" queueing_time="3.00" queueing_length="5.74" queueing_length_experimental="13.32"/>
        </lanes>
    </data>
    <data timestep="40.00">
        <lanes>
            <lane id="-61645695_0" queueing_time="23.00" queueing_length="6.00" queueing_length_experimental="6.00"/>
            <lane id="-628341438#0_0" queueing_time="19.00" queueing_length="25.54" queueing_length_experimental="18.04"/>
            <lane id="-628341438#1_0" queueing_time="3.00" queueing_length="12.02" queueing_length_experimental="12.02"/>
            <lane id="122089525.34_0" queueing_time="9.00" queueing_length="6.00" queueing_length_experimental="6.00"/>
            <lane id="122089525.34_1" queueing_time="5.00" queueing_length="6.00" queueing_length_experimental="6.00"/>
            <lane id="619523288_3" queueing_time="9.00" queueing_length="13.52" queueing_length_experimental="13.52"/>
            <lane id="620377506.61_0" queueing_time="0.00" queueing_length="0.00" queueing_length_experimental="6.26"/>
            <lane id="620377512_0" queueing_time="12.00" queueing_length="13.55" queueing_length_experimental="13.55"/>
            <lane id="620377512_1" queueing_time="8.00" queueing_length="6.00" queueing_length_experimental="6.00"/>
            <lane id="gneE10_0" queueing_time="4.00" queueing_length="13.27" queueing_length_experimental="13.27"/>
        </lanes>
    </data>
    <data timestep="41.00">
        <lanes>
            <lane id="-61645695_0" queueing_time="24.00" queueing_length="6.00" queueing_length_experimental="6.00"/>
            <lane id="-628341438#0_0" queueing_time="20.00" queueing_length="25.54" queueing_length_experimental="18.04"/>
            <lane id="-628341438#1_0" queueing_time="4.00" queueing_length="12.02" queueing_length_experimental="12.02"/>
            <lane id="122089525.34_0" queueing_time="10.00" queueing_length="6.00" queueing_length_experimental="6.00"/>
            <lane id="122089525.34_1" queueing_time="6.00" queueing_length="6.00" queueing_length_experimental="6.00"/>
            <lane id="619523288_3" queueing_time="2.00" queueing_length="13.50" queueing_length_experimental="13.50"/>
            <lane id="620377506.61_0" queueing_time="0.00" queueing_length="0.00" queueing_length_experimental="6.04"/>
            <lane id="620377512_0" queueing_time="13.00" queueing_length="13.52" queueing_length_experimental="13.52"/>
            <lane id="620377512_1" queueing_time="9.00" queueing_length="6.00" queueing_length_experimental="6.00"/>
            <lane id="gneE10_0" queueing_time="5.00" queueing_length="13.25" queueing_length_experimental="20.94"/>
        </lanes>
    </data>
    <data timestep="42.00">
        <lanes>
            <lane id="-61645695_0" queueing_time="25.00" queueing_length="6.00" queueing_length_experimental="6.00"/>
            <lane id="-628341438#0_0" queueing_time="21.00" queueing_length="25.54" queueing_length_experimental="18.04"/>
            <lane id="-628341438#1_0" queueing_time="5.00" queueing_length="12.02" queueing_length_experimental="12.02"/>
            <lane id="122089525.34_0" queueing_time="11.00" queueing_length="6.00" queueing_length_experimental="6.00"/>
            <lane id="122089525.34_1" queueing_time="7.00" queueing_length="6.00" queueing_length_experimental="6.00"/>
            <lane id="547625727_3" queueing_time="1.00" queueing_length="6.01" queueing_length_experimental="6.01"/>
            <lane id="619523288_3" queueing_time="0.00" queueing_length="0.00" queueing_length_experimental="21.49"/>
            <lane id="620377506.61_0" queueing_time="1.00" queueing_length="6.00" queueing_length_experimental="6.00"/>
            <lane id="620377512_0" queueing_time="14.00" queueing_length="13.50" queueing_length_experimental="13.50"/>
            <lane id="620377512_1" queueing_time="10.00" queueing_length="6.00" queueing_length_experimental="6.00"/>
            <lane id="gneE10_0" queueing_time="6.00" queueing_length="13.24" queueing_length_experimental="20.81"/>
        </lanes>
    </data>
    <data timestep="43.00">
        <lanes>
            <lane id="-61645695_0" queueing_time="26.00" queueing_length="6.00" queueing_length_experimental="6.00"/>
            <lane id="-628341438#0_0" queueing_time="22.00" queueing_length="25.54" queueing_length_experimental="18.04"/>
            <lane id="-628341438#1_0" queueing_time="6.00" queueing_length="12.02" queueing_length_experimental="12.02"/>
            <lane id="122089525.34_0" queueing_time="12.00" queueing_length="6.00" queueing_length_experimental="6.00"/>
            <lane id="122089525.34_1" queueing_time="8.00" queueing_length="6.00" queueing_length_experimental="13.59"/>
            <lane id="547625727_3" queueing_time="2.00" queueing_length="6.00" queueing_length_experimental="6.00"/>
            <lane id="620377506.61_0" queueing_time="2.00" queueing_length="6.00" queueing_length_experimental="6.00"/>
            <lane id="620377512_0" queueing_time="15.00" queueing_length="13.50" queueing_length_experimental="13.50"/>
            <lane id="620377512_1" queueing_time="11.00" queueing_length="6.00" queueing_length_experimental="6.00"/>
            <lane id="gneE10_0" queueing_time="7.00" queueing_length="20.78" queueing_length_experimental="20.78"/>
        </lanes>
    </data>
    <data timestep="44.00">
        <lanes>
            <lane id="-61645695_0" queueing_time="27.00" queueing_length="6.00" queueing_length_experimental="6.00"/>
            <lane id="-628341438#0_0" queueing_time="23.00" queueing_length="25.54" queueing_length_experimental="18.04"/>
            <lane id="-628341438#1_0" queueing_time="7.00" queueing_length="12.02" queueing_length_experimental="12.02"/>
            <lane id="122089525.34_0" queueing_time="13.00" queueing_length="6.00" queueing_length_experimental="6.00"/>
            <lane id="122089525.34_1" queueing_time="9.00" queueing_length="13.55" queueing_length_experimental="13.55"/>
            <lane id="547625727_3" queueing_time="3.00" queueing_length="6.00" queueing_length_experimental="6.00"/>
            <lane id="620377506.61_0" queueing_time="3.00" queueing_length="6.00" queueing_length_experimental="6.00"/>
            <lane id="620377512_0" queueing_time="16.00" queueing_length="13.50" queueing_length_experimental="13.50"/>
            <lane id="620377512_1" queueing_time="12.00" queueing_length="6.00" queueing_length_experimental="6.00"/>
            <lane id="gneE10_0" queueing_time="8.00" queueing_length="20.74" queueing_length_experimental="29.00"/>
        </lanes>
    </data>
    <data timestep="45.00">
        <lanes>
            <lane id="-61645695_0" queueing_time="28.00" queueing_length="6.00" queueing_length_experimental="6.00"/>
            <lane id="-628341438#0_0" queueing_time="24.00" queueing_length="25.54" queueing_length_experimental="18.04"/>
            <lane id="-628341438#1_0" queueing_time="8.00" queueing_length="12.02" queueing_length_experimental="12.02"/>
            <lane id="122089525.34_0" queueing_time="14.00" queueing_length="21.05" queueing_length_experimental="21.05"/>
            <lane id="122089525.34_1" queueing_time="10.00" queueing_length="13.52" queueing_length_experimental="13.52"/>
            <lane id="547625727_3" queueing_time="4.00" queueing_length="6.00" queueing_length_experimental="6.00"/>
            <lane id="620377506.61_0" queueing_time="4.00" queueing_length="6.00" queueing_length_experimental="6.00"/>
            <lane id="620377512_0" queueing_time="17.00" queueing_length="13.50" queueing_length_experimental="13.50"/>
            <lane id="620377512_1" queueing_time="13.00" queueing_length="6.00" queueing_length_experimental="6.00"/>
            <lane id="gneE10_0" queueing_time="9.00" queueing_length="20.74" queueing_length_experimental="28.32"/>
        </lanes>
    </data>
    <data timestep="46.00">
        <lanes>
            <lane id="-61645695_0" queueing_time="29.00" queueing_length="6.00" queueing_length_experimental="6.00"/>
            <lane id="-628341438#0_0" queueing_time="25.00" queueing_length="25.54" queueing_length_experimental="18.04"/>
            <lane id="-628341438#1_0" queueing_time="9.00" queueing_length="12.02" queueing_length_experimental="19.79"/>
            <lane id="122089525.34_0" queueing_time="15.00" queueing_length="6.00" queueing_length_experimental="6.00"/>
            <lane id="122089525.34_1" queueing_time="11.00" queueing_length="13.50" queueing_length_experimental="13.50"/>
            <lane id="547625727_3" queueing_time="5.00" queueing_length="6.00" queueing_length_experimental="6.00"/>
            <lane id="620377506.61_0" queueing_time="5.00" queueing_length="6.00" queueing_length_experimental="6.00"/>
            <lane id="620377512_0" queueing_time="18.00" queueing_length="13.50" queueing_length_experimental="13.50"/>
            <lane id="620377512_1" queueing_time="14.00" queueing_length="6.00" queueing_length_experimental="6.00"/>
            <lane id="gneE10_0" queueing_time="10.00" queueing_length="28.27" queueing_length_experimental="28.27"/>
        </lanes>
    </data>
    <data timestep="47.00">
        <lanes>
            <lane id="-61645695_0" queueing_time="30.00" queueing_length="6.00" queueing_length_experimental="6.00"/>
            <lane id="-628341438#0_0" queueing_time="26.00" queueing_length="25.54" queueing_length_experimental="18.04"/>
            <lane id="-628341438#1_0" queueing_time="10.00" queueing_length="12.02" queueing_length_experimental="27.61"/>
            <lane id="122089525.34_0" queueing_time="16.00" queueing_length="6.00" queueing_length_experimental="6.00"/>
            <lane id="122089525.34_1" queueing_time="12.00" queueing_length="13.50" queueing_length_experimental="13.50"/>
            <lane id="547625727_3" queueing_time="6.00" queueing_length="6.00" queueing_length_experimental="6.00"/>
            <lane id="619526566_2" queueing_time="0.00" queueing_length="0.00" queueing_length_experimental="6.09"/>
            <lane id="620377506.61_0" queueing_time="6.00" queueing_length="6.00" queueing_length_experimental="6.00"/>
            <lane id="620377512_0" queueing_time="19.00" queueing_length="13.50" queueing_length_experimental="13.50"/>
            <lane id="620377512_1" queueing_time="15.00" queueing_length="6.00" queueing_length_experimental="6.00"/>
            <lane id="gneE10_0" queueing_time="11.00" queueing_length="28.25" queueing_length_experimental="35.91"/>
        </lanes>
    </data>
    <data timestep="48.00">
        <lanes>
            <lane id="-61645695_0" queueing_time="31.00" queueing_length="6.00" queueing_length_experimental="6.00"/>
            <lane id="-628341438#0_0" queueing_time="27.00" queueing_length="25.54" queueing_length_experimental="18.04"/>
            <lane id="-628341438#1_0" queueing_time="11.00" queueing_length="19.52" queueing_length_experimental="27.19"/>
            <lane id="122089525.34_0" queueing_time="17.00" queueing_length="6.00" queueing_length_experimental="6.00"/>
            <lane id="122089525.34_1" queueing_time="13.00" queueing_length="13.50" queueing_length_experimental="13.50"/>
            <lane id="547625727_3" queueing_time="7.00" queueing_length="6.00" queueing_length_experimental="6.00"/>
            <lane id="619526566_2" queueing_time="1.00" queueing_length="6.01" queueing_length_experimental="6.01"/>
            <lane id="620377506.61_0" queueing_time="7.00" queueing_length="6.00" queueing_length_experimental="6.00"/>
            <lane id="620377512_0" queueing_time="20.00" queueing_length="13.50" queueing_length_experimental="13.50"/>
            <lane id="620377512_1" queueing_time="16.00" queueing_length="6.00" queueing_length_experimental="6.00"/>
            <lane id="gneE10_0" queueing_time="12.00" queueing_length="28.25" queueing_length_experimental="35.79"/>
        </lanes>
    </data>
    <data timestep="49.00">
        <lanes>
            <lane id="-61645695_0" queueing_time="32.00" queueing_length="6.00" queueing_length_experimental="6.00"/>
            <lane id="-628341438#0_0" queueing_time="28.00" queueing_length="25.54" queueing_length_experimental="18.04"/>
            <lane id="-628341438#1_0" queueing_time="12.00" queueing_length="19.52" queueing_length_experimental="27.04"/>
            <lane id="122089525.34_0" queueing_time="18.00" queueing_length="13.51" queueing_length_experimental="13.51"/>
            <lane id="122089525.34_1" queueing_time="14.00" queueing_length="13.50" queueing_length_experimental="13.50"/>
            <lane id="547625727_3" queueing_time="8.00" queueing_length="6.00" queueing_length_experimental="6.00"/>
            <lane id="619526566_2" queueing_time="2.00" queueing_length="6.00" queueing_length_experimental="6.00"/>
            <lane id="620377506.61_0" queueing_time="8.00" queueing_length="6.00" queueing_length_experimental="6.00"/>
            <lane id="620377512_0" queueing_time="21.00" queueing_length="13.50" queueing_length_experimental="13.50"/>
            <lane id="620377512_1" queueing_time="17.00" queueing_length="6.00" queueing_length_experimental="6.00"/>
            <lane id="gneE10_0" queueing_time="13.00" queueing_length="35.76" queueing_length_experimental="35.76"/>
            <lane id="gneE74_1" queueing_time="0.00" queueing_length="0.00" queueing_length_experimental="6.01"/>
        </lanes>
    </data>
    <data timestep="50.00">
        <lanes>
            <lane id="-61645695_0" queueing_time="33.00" queueing_length="6.00" queueing_length_experimental="6.00"/>
            <lane id="-628341438#0_0" queueing_time="29.00" queueing_length="25.54" queueing_length_experimental="18.04"/>
            <lane id="-628341438#1_0" queueing_time="13.00" queueing_length="27.02" queueing_length_experimental="27.02"/>
            <lane id="122089525.34_0" queueing_time="19.00" queueing_length="13.51" queueing_length_experimental="13.51"/>