<?xml version="1.0" encoding="UTF-8"?>

<!-- generated on 07/16/20 11:34:48 by Eclipse SUMO GUI Version 1.5.0
<configuration xmlns:xsi="http://www.w3.org/2001/XMLSchema-instance" xsi:noNamespaceSchemaLocation="http://sumo.dlr.de/xsd/sumoConfiguration.xsd">

    <input>
        <net-file value="simulation/osm.net.xml"/>
        <route-files value="simulation/osm.rou.xml"/>
        <additional-files value="simulation/osm.det.xml"/>
    </input>

    <output>
        <summary-output value="output/summary.xml"/>
        <tripinfo-output value="output/tripinfoEDF.xml"/>
    </output>

    <time>
        <begin value="0"/>
    </time>

    <processing>
        <no-internal-links value="true"/>
    </processing>

    <report>
        <verbose value="true"/>
        <no-step-log value="true"/>
    </report>

    <traci_server>
        <remote-port value="64702"/>
    </traci_server>

</configuration>
-->

<tripinfos xmlns:xsi="http://www.w3.org/2001/XMLSchema-instance" xsi:noNamespaceSchemaLocation="http://sumo.dlr.de/xsd/tripinfo_file.xsd">
    <tripinfo id="4235e4219s_1" depart="7.00" departLane="619523290#0_0" departPos="5.10" departSpeed="0.00" departDelay="0.00" arrival="56.00" arrivalLane="547625725_0" arrivalPos="73.62" arrivalSpeed="20.34" duration="49.00" routeLength="687.48" waitingTime="0.00" waitingCount="0" stopTime="0.00" timeLoss="6.24" rerouteNo="0" devices="tripinfo_4235e4219s_1" vType="type1" speedFactor="0.94" vaporized=""/>
    <tripinfo id="4220s4219n_2" depart="31.00" departLane="gneE10_0" departPos="5.10" departSpeed="0.00" departDelay="0.00" arrival="73.00" arrivalLane="620377501#0_0" arrivalPos="20.24" arrivalSpeed="15.54" duration="42.00" routeLength="255.95" waitingTime="11.00" waitingCount="2" stopTime="0.00" timeLoss="25.89" rerouteNo="0" devices="tripinfo_4220s4219n_2" vType="type1" speedFactor="1.01" vaporized=""/>
    <tripinfo id="4220s4219n_5" depart="43.00" departLane="gneE10_0" departPos="5.10" departSpeed="0.00" departDelay="0.00" arrival="74.00" arrivalLane="620377501#0_0" arrivalPos="20.24" arrivalSpeed="12.90" duration="31.00" routeLength="255.95" waitingTime="2.00" waitingCount="1" stopTime="0.00" timeLoss="12.04" rerouteNo="0" devices="tripinfo_4220s4219n_5" vType="type1" speedFactor="0.83" vaporized=""/>
    <tripinfo id="south4220_10" depart="65.00" departLane="gneE10_0" departPos="5.10" departSpeed="0.00" departDelay="0.00" arrival="84.00" arrivalLane="gneE41_0" arrivalPos="28.67" arrivalSpeed="12.31" duration="19.00" routeLength="64.30" waitingTime="5.00" waitingCount="1" stopTime="0.00" timeLoss="14.03" rerouteNo="0" devices="tripinfo_south4220_10" vType="type1" speedFactor="1.09" vaporized=""/>
    <tripinfo id="4235e4219n_3" depart="33.00" departLane="619523290#0_0" departPos="5.10" departSpeed="0.00" departDelay="0.00" arrival="90.00" arrivalLane="620377501#0_0" arrivalPos="20.24" arrivalSpeed="18.02" duration="57.00" routeLength="724.98" waitingTime="4.00" waitingCount="1" stopTime="0.00" timeLoss="16.30" rerouteNo="0" devices="tripinfo_4235e4219n_3" vType="type1" speedFactor="1.08" vaporized=""/>
    <tripinfo id="south4220_16" depart="89.00" departLane="gneE10_0" departPos="5.10" departSpeed="0.00" departDelay="0.00" arrival="99.00" arrivalLane="gneE41_0" arrivalPos="28.67" arrivalSpeed="11.78" duration="10.00" routeLength="64.30" waitingTime="0.00" waitingCount="0" stopTime="0.00" timeLoss="3.99" rerouteNo="0" devices="tripinfo_south4220_16" vType="type1" speedFactor="0.88" vaporized=""/>
    <tripinfo id="north4219_12" depart="75.00" departLane="620377515_0" departPos="5.10" departSpeed="0.00" departDelay="0.00" arrival="112.00" arrivalLane="620377501#0_0" arrivalPos="20.24" arrivalSpeed="16.76" duration="37.00" routeLength="207.90" waitingTime="15.00" waitingCount="1" stopTime="0.00" timeLoss="25.80" rerouteNo="0" devices="tripinfo_north4219_12" vType="type1" speedFactor="1.05" vaporized=""/>
    <tripinfo id="north4219_14" depart="78.00" departLane="620377515_0" departPos="5.10" departSpeed="0.00" departDelay="0.00" arrival="113.00" arrivalLane="620377501#0_1" arrivalPos="20.24" arrivalSpeed="15.34" duration="35.00" routeLength="207.90" waitingTime="10.00" waitingCount="1" stopTime="0.00" timeLoss="22.92" rerouteNo="0" devices="tripinfo_north4219_14" vType="type1" speedFactor="0.99" vaporized=""/>
    <tripinfo id="4235e4221n_0" depart="4.00" departLane="619523290#0_0" departPos="5.10" departSpeed="0.00" departDelay="0.00" arrival="114.00" arrivalLane="28594060#4_0" arrivalPos="123.22" arrivalSpeed="16.40" duration="110.00" routeLength="1401.89" waitingTime="10.00" waitingCount="2" stopTime="0.00" timeLoss="29.48" rerouteNo="0" devices="tripinfo_4235e4221n_0" vType="type1" speedFactor="1.06" vaporized=""/>
    <tripinfo id="se4235_9" depart="65.00" departLane="619523290#0_0" departPos="5.10" departSpeed="0.00" departDelay="0.00" arrival="114.00" arrivalLane="628341438#1_0" arrivalPos="36.44" arrivalSpeed="11.83" duration="49.00" routeLength="366.85" waitingTime="13.00" waitingCount="1" stopTime="0.00" timeLoss="22.11" rerouteNo="0" devices="tripinfo_se4235_9" vType="type1" speedFactor="0.86" vaporized=""/>
    <tripinfo id="nw4235_17" depart="99.00" departLane="-628341438#1_0" departPos="5.10" departSpeed="0.00" departDelay="0.00" arrival="122.00" arrivalLane="619523287#1_0" arrivalPos="83.27" arrivalSpeed="15.18" duration="23.00" routeLength="265.87" waitingTime="0.00" waitingCount="0" stopTime="0.00" timeLoss="4.72" rerouteNo="0" devices="tripinfo_nw4235_17" vType="type1" speedFactor="0.94" vaporized=""/>
    <tripinfo id="north4219_19" depart="106.00" departLane="620377515_0" departPos="5.10" departSpeed="0.00" departDelay="0.00" arrival="125.00" arrivalLane="620377501#0_0" arrivalPos="20.24" arrivalSpeed="19.12" duration="19.00" routeLength="207.90" waitingTime="0.00" waitingCount="0" stopTime="0.00" timeLoss="7.98" rerouteNo="0" devices="tripinfo_north4219_19" vType="type1" speedFactor="1.16" vaporized=""/>
    <tripinfo id="4235e4219n_11" depart="71.00" departLane="619523290#0_0" departPos="5.10" departSpeed="0.00" departDelay="0.00" arrival="132.00" arrivalLane="620377501#0_0" arrivalPos="20.24" arrivalSpeed="16.57" duration="61.00" routeLength="724.98" waitingTime="4.00" waitingCount="1" stopTime="0.00" timeLoss="18.39" rerouteNo="0" devices="tripinfo_4235e4219n_11" vType="type1" speedFactor="1.03" vaporized=""/>
    <tripinfo id="4235e4219n_13" depart="76.00" departLane="619523290#0_0" departPos="5.10" departSpeed="0.00" departDelay="0.00" arrival="133.00" arrivalLane="620377501#0_1" arrivalPos="20.24" arrivalSpeed="17.42" duration="57.00" routeLength="724.98" waitingTime="1.00" waitingCount="1" stopTime="0.00" timeLoss="17.37" rerouteNo="0" devices="tripinfo_4235e4219n_13" vType="type1" speedFactor="1.12" vaporized=""/>
    <tripinfo id="north4219_23" depart="109.00" departLane="620377515_0" departPos="5.10" departSpeed="0.00" departDelay="1.00" arrival="145.00" arrivalLane="620377501#0_0" arrivalPos="20.24" arrivalSpeed="14.71" duration="36.00" routeLength="207.90" waitingTime="11.00" waitingCount="1" stopTime="0.00" timeLoss="22.59" rerouteNo="0" devices="tripinfo_north4219_23" vType="type1" speedFactor="0.89" vaporized=""/>
    <tripinfo id="4235e4220n_7" depart="61.00" departLane="619523290#0_0" departPos="5.10" departSpeed="0.00" departDelay="0.00" arrival="153.00" arrivalLane="gneE44_0" arrivalPos="38.65" arrivalSpeed="11.30" duration="92.00" routeLength="736.79" waitingTime="22.00" waitingCount="2" stopTime="0.00" timeLoss="41.15" rerouteNo="0" devices="tripinfo_4235e4220n_7" vType="type1" speedFactor="0.89" vaporized=""/>
    <tripinfo id="4235n4221e_6" depart="52.00" departLane="-628341438#1_0" departPos="5.10" departSpeed="0.00" departDelay="0.00" arrival="154.00" arrivalLane="28573015#6_0" arrivalPos="68.82" arrivalSpeed="16.75" duration="102.00" routeLength="943.44" waitingTime="17.00" waitingCount="4" stopTime="0.00" timeLoss="46.52" rerouteNo="0" devices="tripinfo_4235n4221e_6" vType="type1" speedFactor="1.05" vaporized=""/>
    <tripinfo id="se4235_26" depart="124.00" departLane="619523290#0_0" departPos="5.10" departSpeed="0.00" departDelay="0.00" arrival="155.00" arrivalLane="628341438#1_0" arrivalPos="36.44" arrivalSpeed="12.39" duration="31.00" routeLength="366.85" waitingTime="0.00" waitingCount="0" stopTime="0.00" timeLoss="5.90" rerouteNo="0" devices="tripinfo_se4235_26" vType="type1" speedFactor="0.92" vaporized=""/>
    <tripinfo id="4235e4221n_4" depart="38.00" departLane="619523290#0_0" departPos="5.10" departSpeed="0.00" departDelay="0.00" arrival="156.00" arrivalLane="28594060#4_0" arrivalPos="123.22" arrivalSpeed="15.93" duration="118.00" routeLength="1401.89" waitingTime="13.00" waitingCount="2" stopTime="0.00" timeLoss="35.13" rerouteNo="0" devices="tripinfo_4235e4221n_4" vType="type1" speedFactor="1.03" vaporized=""/>
    <tripinfo id="south4219_30" depart="137.00" departLane="620377506_0" departPos="5.10" departSpeed="0.00" departDelay="0.00" arrival="158.00" arrivalLane="547625725_0" arrivalPos="73.62" arrivalSpeed="19.78" duration="21.00" routeLength="195.73" waitingTime="0.00" waitingCount="0" stopTime="0.00" timeLoss="11.82" rerouteNo="0" devices="tripinfo_south4219_30" vType="type1" speedFactor="1.18" vaporized=""/>
    <tripinfo id="4235e4219n_21" depart="107.00" departLane="619523290#0_0" departPos="5.10" departSpeed="0.00" departDelay="0.00" arrival="160.00" arrivalLane="620377501#0_0" arrivalPos="20.24" arrivalSpeed="16.69" duration="53.00" routeLength="724.98" waitingTime="0.00" waitingCount="0" stopTime="0.00" timeLoss="9.07" rerouteNo="0" devices="tripinfo_4235e4219n_21" vType="type1" speedFactor="1.01" vaporized=""/>
    <tripinfo id="south4219_25" depart="118.00" departLane="620377506_0" departPos="5.10" departSpeed="0.00" departDelay="0.00" arrival="160.00" arrivalLane="547625725_0" arrivalPos="73.62" arrivalSpeed="17.79" duration="42.00" routeLength="195.73" waitingTime="18.00" waitingCount="1" stopTime="0.00" timeLoss="29.23" rerouteNo="0" devices="tripinfo_south4219_25" vType="type1" speedFactor="0.87" vaporized=""/>
    <tripinfo id="south4221_15" depart="82.00" departLane="-28594060#4_0" departPos="5.10" departSpeed="0.00" departDelay="0.00" arrival="161.00" arrivalLane="620463733_0" arrivalPos="133.76" arrivalSpeed="15.29" duration="79.00" routeLength="875.34" waitingTime="11.00" waitingCount="1" stopTime="0.00" timeLoss="21.97" rerouteNo="0" devices="tripinfo_south4221_15" vType="type1" speedFactor="0.93" vaporized=""/>
    <tripinfo id="south4219_32" depart="140.00" departLane="620377506_0" departPos="5.10" departSpeed="0.00" departDelay="2.00" arrival="161.00" arrivalLane="547625725_0" arrivalPos="73.62" arrivalSpeed="17.49" duration="21.00" routeLength="195.73" waitingTime="0.00" waitingCount="0" stopTime="0.00" timeLoss="10.32" rerouteNo="0" devices="tripinfo_south4219_32" vType="type1" speedFactor="1.01" vaporized=""/>
    <tripinfo id="4235e4219n_24" depart="111.00" departLane="619523290#0_0" departPos="5.10" departSpeed="0.00" departDelay="0.00" arrival="172.00" arrivalLane="620377501#0_0" arrivalPos="20.24" arrivalSpeed="13.48" duration="61.00" routeLength="724.98" waitingTime="0.00" waitingCount="0" stopTime="0.00" timeLoss="7.38" rerouteNo="0" devices="tripinfo_4235e4219n_24" vType="type1" speedFactor="0.83" vaporized=""/>
    <tripinfo id="4235e4219s_18" depart="101.00" departLane="619523290#0_0" departPos="5.10" departSpeed="0.00" departDelay="0.00" arrival="173.00" arrivalLane="547625725_0" arrivalPos="73.62" arrivalSpeed="18.82" duration="72.00" routeLength="687.48" waitingTime="15.00" waitingCount="1" stopTime="0.00" timeLoss="28.26" rerouteNo="0" devices="tripinfo_4235e4219s_18" vType="type1" speedFactor="0.94" vaporized=""/>
    <tripinfo id="south4220_37" depart="155.00" departLane="gneE10_0" departPos="5.10" departSpeed="0.00" departDelay="0.00" arrival="173.00" arrivalLane="gneE41_0" arrivalPos="28.67" arrivalSpeed="11.89" duration="18.00" routeLength="64.30" waitingTime="4.00" waitingCount="1" stopTime="0.00" timeLoss="13.60" rerouteNo="0" devices="tripinfo_south4220_37" vType="type1" speedFactor="1.18" vaporized=""/>
    <tripinfo id="north4221_20" depart="107.00" departLane="-620463733_0" departPos="5.10" departSpeed="0.00" departDelay="0.00" arrival="177.00" arrivalLane="28594060#4_0" arrivalPos="123.22" arrivalSpeed="16.26" duration="70.00" routeLength="885.44" waitingTime="6.00" waitingCount="1" stopTime="0.00" timeLoss="19.37" rerouteNo="0" devices="tripinfo_north4221_20" vType="type1" speedFactor="1.02" vaporized=""/>
    <tripinfo id="4219s4235w_27" depart="129.00" departLane="620377506_0" departPos="5.10" departSpeed="0.00" departDelay="0.00" arrival="181.00" arrivalLane="619523287#1_0" arrivalPos="83.27" arrivalSpeed="15.41" duration="52.00" routeLength="504.90" waitingTime="8.00" waitingCount="1" stopTime="0.00" timeLoss="19.72" rerouteNo="0" devices="tripinfo_4219s4235w_27" vType="type1" speedFactor="0.95" vaporized=""/>
    <tripinfo id="4221s4235w_8" depart="64.00" departLane="-28594060#4_0" departPos="5.10" departSpeed="0.00" departDelay="0.00" arrival="183.00" arrivalLane="619523287#1_0" arrivalPos="83.27" arrivalSpeed="14.95" duration="119.00" routeLength="1180.84" waitingTime="17.00" waitingCount="3" stopTime="0.00" timeLoss="43.22" rerouteNo="0" devices="tripinfo_4221s4235w_8" vType="type1" speedFactor="0.94" vaporized=""/>
    <tripinfo id="4221n4219n_22" depart="110.00" departLane="-620463733_0" departPos="5.10" departSpeed="0.00" departDelay="3.00" arrival="187.00" arrivalLane="620377501#0_0" arrivalPos="20.24" arrivalSpeed="16.08" duration="77.00" routeLength="632.61" waitingTime="22.00" waitingCount="1" stopTime="0.00" timeLoss="37.08" rerouteNo="0" devices="tripinfo_4221n4219n_22" vType="type1" speedFactor="0.98" vaporized=""/>
    <tripinfo id="north4221_28" depart="134.00" departLane="-620463733_0" departPos="5.10" departSpeed="0.00" departDelay="0.00" arrival="187.00" arrivalLane="28594060#4_0" arrivalPos="123.22" arrivalSpeed="17.83" duration="53.00" routeLength="885.44" waitingTime="0.00" waitingCount="0" stopTime="0.00" timeLoss="7.81" rerouteNo="0" devices="tripinfo_north4221_28" vType="type1" speedFactor="1.13" vaporized=""/>
    <tripinfo id="north4221_31" depart="137.00" departLane="-620463733_0" departPos="5.10" departSpeed="0.00" departDelay="0.00" arrival="190.00" arrivalLane="28594060#4_0" arrivalPos="123.22" arrivalSpeed="18.02" duration="53.00" routeLength="885.44" waitingTime="0.00" waitingCount="0" stopTime="0.00" timeLoss="8.08" rerouteNo="0" devices="tripinfo_north4221_31" vType="type1" speedFactor="1.15" vaporized=""/>
    <tripinfo id="north4219_44" depart="178.00" departLane="620377515_0" departPos="5.10" departSpeed="0.00" departDelay="0.00" arrival="197.00" arrivalLane="620377501#0_0" arrivalPos="20.24" arrivalSpeed="17.33" duration="19.00" routeLength="207.90" waitingTime="0.00" waitingCount="0" stopTime="0.00" timeLoss="7.37" rerouteNo="0" devices="tripinfo_north4219_44" vType="type1" speedFactor="1.04" vaporized=""/>
    <tripinfo id="4221n4220s_39" depart="163.00" departLane="-620463733_0" departPos="5.10" departSpeed="0.00" departDelay="0.00" arrival="201.00" arrivalLane="gneE41_0" arrivalPos="28.67" arrivalSpeed="11.71" duration="38.00" routeLength="443.83" waitingTime="0.00" waitingCount="0" stopTime="0.00" timeLoss="6.71" rerouteNo="0" devices="tripinfo_4221n4220s_39" vType="type1" speedFactor="0.90" vaporized=""/>
    <tripinfo id="4235e4219n_33" depart="139.00" departLane="619523290#0_0" departPos="5.10" departSpeed="0.00" departDelay="0.00" arrival="203.00" arrivalLane="620377501#0_0" arrivalPos="20.24" arrivalSpeed="18.71" duration="64.00" routeLength="724.98" waitingTime="11.00" waitingCount="1" stopTime="0.00" timeLoss="26.16" rerouteNo="0" devices="tripinfo_4235e4219n_33" vType="type1" speedFactor="1.17" vaporized=""/>
    <tripinfo id="4235e4219n_34" depart="142.00" departLane="619523290#0_0" departPos="5.10" departSpeed="0.00" departDelay="0.00" arrival="204.00" arrivalLane="620377501#0_1" arrivalPos="20.24" arrivalSpeed="15.64" duration="62.00" routeLength="724.98" waitingTime="4.00" waitingCount="1" stopTime="0.00" timeLoss="18.07" rerouteNo="0" devices="tripinfo_4235e4219n_34" vType="type1" speedFactor="0.99" vaporized=""/>
    <tripinfo id="south4220_46" depart="195.00" departLane="gneE10_0" departPos="5.10" departSpeed="0.00" departDelay="0.00" arrival="212.00" arrivalLane="gneE41_0" arrivalPos="28.67" arrivalSpeed="10.36" duration="17.00" routeLength="64.30" waitingTime="5.00" waitingCount="1" stopTime="0.00" timeLoss="12.29" rerouteNo="0" devices="tripinfo_south4220_46" vType="type1" speedFactor="1.00" vaporized=""/>
    <tripinfo id="south4219_41" depart="173.00" departLane="620377506_0" departPos="5.10" departSpeed="0.00" departDelay="0.00" arrival="216.00" arrivalLane="547625725_0" arrivalPos="73.62" arrivalSpeed="19.38" duration="43.00" routeLength="195.73" waitingTime="20.00" waitingCount="1" stopTime="0.00" timeLoss="31.22" rerouteNo="0" devices="tripinfo_south4219_41" vType="type1" speedFactor="0.96" vaporized=""/>
    <tripinfo id="4219s4221s_36" depart="146.00" departLane="620377506_0" departPos="5.10" departSpeed="0.00" departDelay="0.00" arrival="221.00" arrivalLane="620463733_0" arrivalPos="133.76" arrivalSpeed="15.61" duration="75.00" routeLength="601.50" waitingTime="16.00" waitingCount="2" stopTime="0.00" timeLoss="37.42" rerouteNo="0" devices="tripinfo_4219s4221s_36" vType="type1" speedFactor="0.97" vaporized=""/>
    <tripinfo id="nw4235_53" depart="216.00" departLane="-628341438#1_0" departPos="5.10" departSpeed="0.00" departDelay="0.00" arrival="238.00" arrivalLane="619523287#1_0" arrivalPos="83.27" arrivalSpeed="17.87" duration="22.00" routeLength="265.87" waitingTime="0.00" waitingCount="0" stopTime="0.00" timeLoss="5.89" rerouteNo="0" devices="tripinfo_nw4235_53" vType="type1" speedFactor="1.10" vaporized=""/>
    <tripinfo id="4221n4220n_43" depart="180.00" departLane="-620463733_0" departPos="5.10" departSpeed="0.00" departDelay="3.00" arrival="239.00" arrivalLane="gneE44_0" arrivalPos="38.65" arrivalSpeed="11.78" duration="59.00" routeLength="452.38" waitingTime="17.00" waitingCount="1" stopTime="0.00" timeLoss="32.00" rerouteNo="0" devices="tripinfo_4221n4220n_43" vType="type1" speedFactor="1.04" vaporized=""/>
    <tripinfo id="north4219_48" depart="204.00" departLane="620377515_0" departPos="5.10" departSpeed="0.00" departDelay="0.00" arrival="241.00" arrivalLane="620377501#0_0" arrivalPos="20.24" arrivalSpeed="13.91" duration="37.00" routeLength="207.90" waitingTime="10.00" waitingCount="1" stopTime="0.00" timeLoss="23.34" rerouteNo="0" devices="tripinfo_north4219_48" vType="type1" speedFactor="0.88" vaporized=""/>
    <tripinfo id="south4219_51" depart="213.00" departLane="620377506_0" departPos="5.10" departSpeed="0.00" departDelay="0.00" arrival="245.00" arrivalLane="547625725_0" arrivalPos="73.62" arrivalSpeed="18.57" duration="32.00" routeLength="195.73" waitingTime="10.00" waitingCount="1" stopTime="0.00" timeLoss="22.25" rerouteNo="0" devices="tripinfo_south4219_51" vType="type1" speedFactor="1.17" vaporized=""/>
    <tripinfo id="4221n4235w_35" depart="144.00" departLane="-620463733_0" departPos="5.10" departSpeed="0.00" departDelay="0.00" arrival="246.00" arrivalLane="619523287#1_0" arrivalPos="83.27" arrivalSpeed="16.39" duration="102.00" routeLength="902.73" waitingTime="25.00" waitingCount="2" stopTime="0.00" timeLoss="47.99" rerouteNo="0" devices="tripinfo_4221n4235w_35" vType="type1" speedFactor="1.02" vaporized=""/>
    <tripinfo id="4235e4219n_45" depart="192.00" departLane="619523290#0_0" departPos="5.10" departSpeed="0.00" departDelay="0.00" arrival="246.00" arrivalLane="620377501#0_0" arrivalPos="20.24" arrivalSpeed="17.66" duration="54.00" routeLength="724.98" waitingTime="0.00" waitingCount="0" stopTime="0.00" timeLoss="13.65" rerouteNo="0" devices="tripinfo_4235e4219n_45" vType="type1" speedFactor="1.09" vaporized=""/>
    <tripinfo id="north4221_42" depart="177.00" departLane="-620463733_0" departPos="5.10" departSpeed="0.00" departDelay="0.00" arrival="247.00" arrivalLane="28594060#4_0" arrivalPos="123.22" arrivalSpeed="17.26" duration="70.00" routeLength="885.44" waitingTime="8.00" waitingCount="1" stopTime="0.00" timeLoss="23.23" rerouteNo="0" devices="tripinfo_north4221_42" vType="type1" speedFactor="1.09" vaporized=""/>
    <tripinfo id="4235e4221e_29" depart="135.00" departLane="619523290#0_0" departPos="5.10" departSpeed="0.00" departDelay="0.00" arrival="268.00" arrivalLane="28573015#6_0" arrivalPos="68.82" arrivalSpeed="15.04" duration="133.00" routeLength="1194.53" waitingTime="29.00" waitingCount="3" stopTime="0.00" timeLoss="54.90" rerouteNo="0" devices="tripinfo_4235e4221e_29" vType="type1" speedFactor="0.93" vaporized=""/>
    <tripinfo id="4235e4221e_38" depart="158.00" departLane="619523290#0_0" departPos="5.10" departSpeed="0.00" departDelay="0.00" arrival="269.00" arrivalLane="28573015#6_0" arrivalPos="68.82" arrivalSpeed="16.48" duration="111.00" routeLength="1194.53" waitingTime="17.00" waitingCount="2" stopTime="0.00" timeLoss="45.61" rerouteNo="0" devices="tripinfo_4235e4221e_38" vType="type1" speedFactor="1.10" vaporized=""/>
    <tripinfo id="4235e4219n_55" depart="221.00" departLane="619523290#0_0" departPos="5.10" departSpeed="0.00" departDelay="2.00" arrival="272.00" arrivalLane="620377501#0_0" arrivalPos="20.24" arrivalSpeed="16.51" duration="51.00" routeLength="724.98" waitingTime="0.00" waitingCount="0" stopTime="0.00" timeLoss="6.89" rerouteNo="0" devices="tripinfo_4235e4219n_55" vType="type1" speedFactor="1.00" vaporized=""/>
    <tripinfo id="4235e4221n_40" depart="168.00" departLane="619523290#0_0" departPos="5.10" departSpeed="0.00" departDelay="0.00" arrival="275.00" arrivalLane="28594060#4_0" arrivalPos="123.22" arrivalSpeed="16.46" duration="107.00" routeLength="1401.89" waitingTime="6.00" waitingCount="1" stopTime="0.00" timeLoss="24.09" rerouteNo="0" devices="tripinfo_4235e4221n_40" vType="type1" speedFactor="1.03" vaporized=""/>
    <tripinfo id="se4221_49" depart="206.00" departLane="-28594060#4_0" departPos="5.10" departSpeed="0.00" departDelay="0.00" arrival="282.00" arrivalLane="28573015#6_0" arrivalPos="68.82" arrivalSpeed="13.60" duration="76.00" routeLength="955.26" waitingTime="0.00" waitingCount="0" stopTime="0.00" timeLoss="7.81" rerouteNo="0" devices="tripinfo_se4221_49" vType="type1" speedFactor="0.85" vaporized=""/>
    <tripinfo id="south4219_58" depart="248.00" departLane="620377506_0" departPos="5.10" departSpeed="0.00" departDelay="0.00" arrival="285.00" arrivalLane="547625725_0" arrivalPos="73.62" arrivalSpeed="19.56" duration="37.00" routeLength="195.73" waitingTime="13.00" waitingCount="1" stopTime="0.00" timeLoss="25.89" rerouteNo="0" devices="tripinfo_south4219_58" vType="type1" speedFactor="1.02" vaporized=""/>
    <tripinfo id="north4221_57" depart="235.00" departLane="-620463733_0" departPos="5.10" departSpeed="0.00" departDelay="0.00" arrival="287.00" arrivalLane="28594060#4_0" arrivalPos="123.22" arrivalSpeed="18.20" duration="52.00" routeLength="885.44" waitingTime="0.00" waitingCount="0" stopTime="0.00" timeLoss="6.66" rerouteNo="0" devices="tripinfo_north4221_57" vType="type1" speedFactor="1.14" vaporized=""/>
    <tripinfo id="north4219_59" depart="249.00" departLane="620377515_0" departPos="5.10" departSpeed="0.00" departDelay="0.00" arrival="287.00" arrivalLane="620377501#0_0" arrivalPos="20.24" arrivalSpeed="15.07" duration="38.00" routeLength="207.90" waitingTime="14.00" waitingCount="1" stopTime="0.00" timeLoss="25.64" rerouteNo="0" devices="tripinfo_north4219_59" vType="type1" speedFactor="0.97" vaporized=""/>
    <tripinfo id="se4235_60" depart="254.00" departLane="619523290#0_0" departPos="5.10" departSpeed="0.00" departDelay="0.00" arrival="291.00" arrivalLane="628341438#1_0" arrivalPos="36.44" arrivalSpeed="14.73" duration="37.00" routeLength="366.85" waitingTime="5.00" waitingCount="1" stopTime="0.00" timeLoss="15.51" rerouteNo="0" devices="tripinfo_se4235_60" vType="type1" speedFactor="1.08" vaporized=""/>
    <tripinfo id="north4221_56" depart="222.00" departLane="-620463733_0" departPos="5.10" departSpeed="0.00" departDelay="0.00" arrival="298.00" arrivalLane="28594060#4_0" arrivalPos="123.22" arrivalSpeed="13.76" duration="76.00" routeLength="885.44" waitingTime="5.00" waitingCount="1" stopTime="0.00" timeLoss="19.45" rerouteNo="0" devices="tripinfo_north4221_56" vType="type1" speedFactor="0.90" vaporized=""/>
    <tripinfo id="4219s4221e_50" depart="207.00" departLane="620377506_0" departPos="5.10" departSpeed="0.00" departDelay="0.00" arrival="302.00" arrivalLane="28573015#6_0" arrivalPos="68.82" arrivalSpeed="13.48" duration="95.00" routeLength="693.43" waitingTime="24.00" waitingCount="3" stopTime="0.00" timeLoss="45.83" rerouteNo="0" devices="tripinfo_4219s4221e_50" vType="type1" speedFactor="0.85" vaporized=""/>
    <tripinfo id="4220s4219n_61" depart="262.00" departLane="gneE10_0" departPos="5.10" departSpeed="0.00" departDelay="0.00" arrival="303.00" arrivalLane="620377501#0_0" arrivalPos="20.24" arrivalSpeed="18.38" duration="41.00" routeLength="255.95" waitingTime="11.00" waitingCount="2" stopTime="0.00" timeLoss="26.59" rerouteNo="0" devices="tripinfo_4220s4219n_61" vType="type1" speedFactor="1.12" vaporized=""/>
    <tripinfo id="4235e4221e_47" depart="201.00" departLane="619523290#0_0" departPos="5.10" departSpeed="0.00" departDelay="0.00" arrival="304.00" arrivalLane="28573015#6_0" arrivalPos="68.82" arrivalSpeed="14.51" duration="103.00" routeLength="1194.53" waitingTime="6.00" waitingCount="1" stopTime="0.00" timeLoss="22.27" rerouteNo="0" devices="tripinfo_4235e4221e_47" vType="type1" speedFactor="0.90" vaporized=""/>
    <tripinfo id="4235e4221e_54" depart="218.00" departLane="619523290#0_0" departPos="5.10" departSpeed="0.00" departDelay="0.00" arrival="305.00" arrivalLane="28573015#6_0" arrivalPos="68.82" arrivalSpeed="16.29" duration="87.00" routeLength="1194.53" waitingTime="0.00" waitingCount="0" stopTime="0.00" timeLoss="15.07" rerouteNo="0" devices="tripinfo_4235e4221e_54" vType="type1" speedFactor="1.00" vaporized=""/>
    <tripinfo id="4220s4235w_52" depart="214.00" departLane="gneE10_0" departPos="5.10" departSpeed="0.00" departDelay="0.00" arrival="312.00" arrivalLane="619523287#1_0" arrivalPos="83.27" arrivalSpeed="16.80" duration="98.00" routeLength="526.07" waitingTime="41.00" waitingCount="3" stopTime="0.00" timeLoss="65.86" rerouteNo="0" devices="tripinfo_4220s4235w_52" vType="type1" speedFactor="1.02" vaporized=""/>
    <tripinfo id="nw4235_65" depart="289.00" departLane="-628341438#1_0" departPos="5.10" departSpeed="0.00" departDelay="0.00" arrival="315.00" arrivalLane="619523287#1_0" arrivalPos="83.27" arrivalSpeed="13.92" duration="26.00" routeLength="265.87" waitingTime="0.00" waitingCount="0" stopTime="0.00" timeLoss="6.99" rerouteNo="0" devices="tripinfo_nw4235_65" vType="type1" speedFactor="0.88" vaporized=""/>
    <tripinfo id="south4220_72" depart="307.00" departLane="gneE10_0" departPos="5.10" departSpeed="0.00" departDelay="0.00" arrival="317.00" arrivalLane="gneE41_0" arrivalPos="28.67" arrivalSpeed="12.18" duration="10.00" routeLength="64.30" waitingTime="0.00" waitingCount="0" stopTime="0.00" timeLoss="4.50" rerouteNo="0" devices="tripinfo_south4220_72" vType="type1" speedFactor="0.94" vaporized=""/>
    <tripinfo id="south4219_70" depart="295.00" departLane="620377506_0" departPos="5.10" departSpeed="0.00" departDelay="0.00" arrival="322.00" arrivalLane="547625725_0" arrivalPos="73.62" arrivalSpeed="18.43" duration="27.00" routeLength="195.73" waitingTime="6.00" waitingCount="1" stopTime="0.00" timeLoss="16.33" rerouteNo="0" devices="tripinfo_south4219_70" vType="type1" speedFactor="1.02" vaporized=""/>
    <tripinfo id="south4219_71" depart="298.00" departLane="620377506_0" departPos="5.10" departSpeed="0.00" departDelay="2.00" arrival="323.00" arrivalLane="547625725_1" arrivalPos="73.62" arrivalSpeed="17.44" duration="25.00" routeLength="195.73" waitingTime="1.00" waitingCount="1" stopTime="0.00" timeLoss="13.83" rerouteNo="0" devices="tripinfo_south4219_71" vType="type1" speedFactor="0.97" vaporized=""/>
    <tripinfo id="4235e4219n_63" depart="277.00" departLane="619523290#0_0" departPos="5.10" departSpeed="0.00" departDelay="0.00" arrival="329.00" arrivalLane="620377501#0_0" arrivalPos="20.24" arrivalSpeed="16.12" duration="52.00" routeLength="724.98" waitingTime="0.00" waitingCount="0" stopTime="0.00" timeLoss="7.55" rerouteNo="0" devices="tripinfo_4235e4219n_63" vType="type1" speedFactor="0.99" vaporized=""/>
    <tripinfo id="4235e4219s_62" depart="274.00" departLane="619523290#0_0" departPos="5.10" departSpeed="0.00" departDelay="0.00" arrival="333.00" arrivalLane="547625725_0" arrivalPos="73.62" arrivalSpeed="17.82" duration="59.00" routeLength="687.48" waitingTime="8.00" waitingCount="1" stopTime="0.00" timeLoss="19.44" rerouteNo="0" devices="tripinfo_4235e4219s_62" vType="type1" speedFactor="1.02" vaporized=""/>
    <tripinfo id="south4219_73" depart="309.00" departLane="620377506_0" departPos="5.10" departSpeed="0.00" departDelay="0.00" arrival="345.00" arrivalLane="547625725_0" arrivalPos="73.62" arrivalSpeed="19.32" duration="36.00" routeLength="195.73" waitingTime="11.00" waitingCount="1" stopTime="0.00" timeLoss="25.16" rerouteNo="0" devices="tripinfo_south4219_73" vType="type1" speedFactor="1.06" vaporized=""/>