<?xml version="1.0" encoding="UTF-8"?>

<!-- generated on 10/11/20 21:09:01 by Eclipse SUMO Version 1.5.0
<configuration xmlns:xsi="http://www.w3.org/2001/XMLSchema-instance" xsi:noNamespaceSchemaLocation="http://sumo.dlr.de/xsd/sumoConfiguration.xsd">

    <input>
        <net-file value="simulation/osm.net.xml"/>
        <route-files value="simulation/osm.rou.xml"/>
        <additional-files value="simulation/osm.det.xml"/>
    </input>

    <output>
        <summary-output value="output/summary.xml"/>
        <tripinfo-output value="output/tripinfoEDF.xml"/>
    </output>

    <time>
        <begin value="0"/>
    </time>

    <processing>
        <no-internal-links value="true"/>
    </processing>

    <report>
        <verbose value="true"/>
        <no-step-log value="true"/>
    </report>

    <traci_server>
        <remote-port value="53644"/>
    </traci_server>

</configuration>
-->

<tripinfos xmlns:xsi="http://www.w3.org/2001/XMLSchema-instance" xsi:noNamespaceSchemaLocation="http://sumo.dlr.de/xsd/tripinfo_file.xsd">
    <tripinfo id="4220s4221s_2" depart="1.00" departLane="gneE10.441_0" departPos="5.10" departSpeed="0.00" departDelay="0.00" arrival="44.00" arrivalLane="620463733_0" arrivalPos="133.76" arrivalSpeed="16.57" duration="43.00" routeLength="431.72" waitingTime="4.00" waitingCount="1" stopTime="0.00" timeLoss="16.44" rerouteNo="0" devices="tripinfo_4220s4221s_2" vType="type1" speedFactor="1.01" vaporized=""/>
    <tripinfo id="4220s4219n_8" depart="5.00" departLane="gneE10.441_0" departPos="5.10" departSpeed="0.00" departDelay="2.00" arrival="44.00" arrivalLane="620377501#0_1" arrivalPos="20.24" arrivalSpeed="14.65" duration="39.00" routeLength="243.00" waitingTime="7.00" waitingCount="2" stopTime="0.00" timeLoss="23.00" rerouteNo="0" devices="tripinfo_4220s4219n_8" vType="type1" speedFactor="0.94" vaporized=""/>
    <tripinfo id="4220s4219n_5" depart="4.00" departLane="gneE10.441_0" departPos="5.10" departSpeed="0.00" departDelay="3.00" arrival="45.00" arrivalLane="620377501#0_0" arrivalPos="20.24" arrivalSpeed="13.81" duration="41.00" routeLength="243.00" waitingTime="10.00" waitingCount="2" stopTime="0.00" timeLoss="22.88" rerouteNo="0" devices="tripinfo_4220s4219n_5" vType="type1" speedFactor="0.83" vaporized=""/>
    <tripinfo id="4220s4219n_27" depart="11.00" departLane="gneE10.441_0" departPos="5.10" departSpeed="0.00" departDelay="0.00" arrival="46.00" arrivalLane="620377501#0_1" arrivalPos="20.24" arrivalSpeed="14.94" duration="35.00" routeLength="243.00" waitingTime="3.00" waitingCount="2" stopTime="0.00" timeLoss="18.92" rerouteNo="0" devices="tripinfo_4220s4219n_27" vType="type1" speedFactor="0.95" vaporized=""/>
    <tripinfo id="4220s4219n_68" depart="28.00" departLane="gneE10.441_0" departPos="5.10" departSpeed="0.00" departDelay="0.00" arrival="47.00" arrivalLane="620377501#0_0" arrivalPos="20.24" arrivalSpeed="16.99" duration="19.00" routeLength="243.00" waitingTime="0.00" waitingCount="0" stopTime="0.00" timeLoss="4.66" rerouteNo="0" devices="tripinfo_4220s4219n_68" vType="type1" speedFactor="1.04" vaporized=""/>
    <tripinfo id="south4220_12" depart="7.00" departLane="gneE10.441_0" departPos="5.10" departSpeed="0.00" departDelay="2.00" arrival="51.00" arrivalLane="gneE41_0" arrivalPos="453.36" arrivalSpeed="14.08" duration="44.00" routeLength="476.04" waitingTime="2.00" waitingCount="1" stopTime="0.00" timeLoss="11.08" rerouteNo="0" devices="tripinfo_south4220_12" vType="type1" speedFactor="1.05" vaporized=""/>
    <tripinfo id="south4220_45" depart="18.00" departLane="gneE10.441_0" departPos="5.10" departSpeed="0.00" departDelay="0.00" arrival="55.00" arrivalLane="gneE41_0" arrivalPos="453.36" arrivalSpeed="14.48" duration="37.00" routeLength="476.04" waitingTime="0.00" waitingCount="0" stopTime="0.00" timeLoss="5.01" rerouteNo="0" devices="tripinfo_south4220_45" vType="type1" speedFactor="1.09" vaporized=""/>
    <tripinfo id="nw4235_81" depart="34.00" departLane="-628341438#1_0" departPos="5.10" departSpeed="0.00" departDelay="0.00" arrival="56.00" arrivalLane="619523287#1_0" arrivalPos="83.27" arrivalSpeed="16.42" duration="22.00" routeLength="265.87" waitingTime="0.00" waitingCount="0" stopTime="0.00" timeLoss="4.75" rerouteNo="0" devices="tripinfo_nw4235_81" vType="type1" speedFactor="1.00" vaporized=""/>
    <tripinfo id="4235e4219s_13" depart="12.00" departLane="619523290#0_0" departPos="5.10" departSpeed="0.00" departDelay="7.00" arrival="57.00" arrivalLane="547625725_0" arrivalPos="73.62" arrivalSpeed="19.00" duration="45.00" routeLength="687.48" waitingTime="0.00" waitingCount="0" stopTime="0.00" timeLoss="9.17" rerouteNo="0" devices="tripinfo_4235e4219s_13" vType="type1" speedFactor="1.12" vaporized=""/>
    <tripinfo id="nw4235_83" depart="37.00" departLane="-628341438#1_0" departPos="5.10" departSpeed="0.00" departDelay="2.00" arrival="60.00" arrivalLane="619523287#1_0" arrivalPos="83.27" arrivalSpeed="14.82" duration="23.00" routeLength="265.87" waitingTime="0.00" waitingCount="0" stopTime="0.00" timeLoss="4.89" rerouteNo="0" devices="tripinfo_nw4235_83" vType="type1" speedFactor="0.97" vaporized=""/>
    <tripinfo id="4235e4219n_1" depart="0.00" departLane="619523290#0_0" departPos="5.10" departSpeed="0.00" departDelay="0.00" arrival="61.00" arrivalLane="620377501#0_0" arrivalPos="20.24" arrivalSpeed="14.82" duration="61.00" routeLength="724.98" waitingTime="3.00" waitingCount="1" stopTime="0.00" timeLoss="14.45" rerouteNo="0" devices="tripinfo_4235e4219n_1" vType="type1" speedFactor="0.94" vaporized=""/>
    <tripinfo id="north4221_6" depart="2.00" departLane="-620463733_0" departPos="5.10" departSpeed="0.00" departDelay="0.00" arrival="72.00" arrivalLane="28594060#4_0" arrivalPos="123.22" arrivalSpeed="16.13" duration="70.00" routeLength="885.44" waitingTime="5.00" waitingCount="1" stopTime="0.00" timeLoss="20.42" rerouteNo="0" devices="tripinfo_north4221_6" vType="type1" speedFactor="1.05" vaporized=""/>
    <tripinfo id="4220s4235w_52" depart="21.00" departLane="gneE10.441_0" departPos="5.10" departSpeed="0.00" departDelay="0.00" arrival="73.00" arrivalLane="619523287#1_0" arrivalPos="83.27" arrivalSpeed="16.91" duration="52.00" routeLength="513.12" waitingTime="10.00" waitingCount="1" stopTime="0.00" timeLoss="21.48" rerouteNo="0" devices="tripinfo_4220s4235w_52" vType="type1" speedFactor="1.02" vaporized=""/>
    <tripinfo id="4220s4221e_61" depart="25.00" departLane="gneE10.441_0" departPos="5.10" departSpeed="0.00" departDelay="0.00" arrival="73.00" arrivalLane="28573015#6_0" arrivalPos="68.82" arrivalSpeed="18.64" duration="48.00" routeLength="523.65" waitingTime="6.00" waitingCount="1" stopTime="0.00" timeLoss="19.23" rerouteNo="0" devices="tripinfo_4220s4221e_61" vType="type1" speedFactor="1.12" vaporized=""/>
    <tripinfo id="north4221_21" depart="11.00" departLane="-620463733_0" departPos="5.10" departSpeed="0.00" departDelay="3.00" arrival="75.00" arrivalLane="28594060#4_0" arrivalPos="123.22" arrivalSpeed="16.59" duration="64.00" routeLength="885.44" waitingTime="0.00" waitingCount="0" stopTime="0.00" timeLoss="12.91" rerouteNo="0" devices="tripinfo_north4221_21" vType="type1" speedFactor="1.01" vaporized=""/>
    <tripinfo id="north4219_11" depart="5.00" departLane="620377515_0" departPos="5.10" departSpeed="0.00" departDelay="0.00" arrival="76.00" arrivalLane="620377501#0_0" arrivalPos="20.24" arrivalSpeed="16.67" duration="71.00" routeLength="923.62" waitingTime="14.00" waitingCount="1" stopTime="0.00" timeLoss="27.80" rerouteNo="0" devices="tripinfo_north4219_11" vType="type1" speedFactor="1.03" vaporized=""/>
    <tripinfo id="north4219_31" depart="14.00" departLane="620377515_0" departPos="5.10" departSpeed="0.00" departDelay="0.00" arrival="76.00" arrivalLane="620377501#0_1" arrivalPos="20.24" arrivalSpeed="19.09" duration="62.00" routeLength="923.62" waitingTime="9.00" waitingCount="1" stopTime="0.00" timeLoss="23.02" rerouteNo="0" devices="tripinfo_north4219_31" vType="type1" speedFactor="1.15" vaporized=""/>
    <tripinfo id="north4219_42" depart="17.00" departLane="620377515_0" departPos="5.10" departSpeed="0.00" departDelay="0.00" arrival="77.00" arrivalLane="620377501#0_2" arrivalPos="20.24" arrivalSpeed="17.98" duration="60.00" routeLength="923.62" waitingTime="6.00" waitingCount="1" stopTime="0.00" timeLoss="19.57" rerouteNo="0" devices="tripinfo_north4219_42" vType="type1" speedFactor="1.09" vaporized=""/>
    <tripinfo id="north4219_54" depart="26.00" departLane="620377515_0" departPos="5.10" departSpeed="0.00" departDelay="3.00" arrival="77.00" arrivalLane="620377501#0_1" arrivalPos="20.24" arrivalSpeed="16.01" duration="51.00" routeLength="923.62" waitingTime="0.00" waitingCount="0" stopTime="0.00" timeLoss="6.78" rerouteNo="0" devices="tripinfo_north4219_54" vType="type1" speedFactor="1.00" vaporized=""/>
    <tripinfo id="north4221_22" depart="14.00" departLane="-620463733_0" departPos="5.10" departSpeed="0.00" departDelay="5.00" arrival="78.00" arrivalLane="28594060#4_0" arrivalPos="123.22" arrivalSpeed="15.39" duration="64.00" routeLength="885.44" waitingTime="0.00" waitingCount="0" stopTime="0.00" timeLoss="10.86" rerouteNo="0" devices="tripinfo_north4221_22" vType="type1" speedFactor="0.98" vaporized=""/>
    <tripinfo id="north4221_9" depart="5.00" departLane="-620463733_0" departPos="5.10" departSpeed="0.00" departDelay="1.00" arrival="79.00" arrivalLane="28594060#4_0" arrivalPos="123.22" arrivalSpeed="13.47" duration="74.00" routeLength="885.44" waitingTime="0.00" waitingCount="0" stopTime="0.00" timeLoss="13.87" rerouteNo="0" devices="tripinfo_north4221_9" vType="type1" speedFactor="0.86" vaporized=""/>
    <tripinfo id="south4221_0" depart="0.00" departLane="-28594060#4_0" departPos="5.10" departSpeed="0.00" departDelay="0.00" arrival="80.00" arrivalLane="620463733_0" arrivalPos="133.76" arrivalSpeed="17.27" duration="80.00" routeLength="875.34" waitingTime="19.00" waitingCount="1" stopTime="0.00" timeLoss="30.15" rerouteNo="0" devices="tripinfo_south4221_0" vType="type1" speedFactor="1.06" vaporized=""/>
    <tripinfo id="north4219_47" depart="20.00" departLane="620377515_0" departPos="5.10" departSpeed="0.00" departDelay="1.00" arrival="80.00" arrivalLane="620377501#0_1" arrivalPos="20.24" arrivalSpeed="14.26" duration="60.00" routeLength="923.62" waitingTime="0.00" waitingCount="0" stopTime="0.00" timeLoss="10.42" rerouteNo="0" devices="tripinfo_north4219_47" vType="type1" speedFactor="0.90" vaporized=""/>
    <tripinfo id="north4219_48" depart="23.00" departLane="620377515_0" departPos="5.10" departSpeed="0.00" departDelay="3.00" arrival="80.00" arrivalLane="620377501#0_0" arrivalPos="20.24" arrivalSpeed="14.25" duration="57.00" routeLength="923.62" waitingTime="0.00" waitingCount="0" stopTime="0.00" timeLoss="6.46" rerouteNo="0" devices="tripinfo_north4219_48" vType="type1" speedFactor="0.88" vaporized=""/>
    <tripinfo id="north4219_57" depart="29.00" departLane="620377515_0" departPos="5.10" departSpeed="0.00" departDelay="5.00" arrival="80.00" arrivalLane="620377501#0_2" arrivalPos="20.24" arrivalSpeed="18.53" duration="51.00" routeLength="923.62" waitingTime="0.00" waitingCount="0" stopTime="0.00" timeLoss="12.08" rerouteNo="0" devices="tripinfo_north4219_57" vType="type1" speedFactor="1.14" vaporized=""/>
    <tripinfo id="north4221_16" depart="8.00" departLane="-620463733_0" departPos="5.10" departSpeed="0.00" departDelay="2.00" arrival="81.00" arrivalLane="28594060#4_0" arrivalPos="123.22" arrivalSpeed="14.06" duration="73.00" routeLength="885.44" waitingTime="0.00" waitingCount="0" stopTime="0.00" timeLoss="13.53" rerouteNo="0" devices="tripinfo_north4221_16" vType="type1" speedFactor="0.88" vaporized=""/>
    <tripinfo id="north4219_63" depart="32.00" departLane="620377515_0" departPos="5.10" departSpeed="0.00" departDelay="6.00" arrival="86.00" arrivalLane="620377501#0_0" arrivalPos="20.24" arrivalSpeed="16.20" duration="54.00" routeLength="923.62" waitingTime="0.00" waitingCount="0" stopTime="0.00" timeLoss="8.74" rerouteNo="0" devices="tripinfo_north4219_63" vType="type1" speedFactor="0.99" vaporized=""/>
    <tripinfo id="4220s4221n_70" depart="29.00" departLane="gneE10.441_0" departPos="5.10" departSpeed="0.00" departDelay="0.00" arrival="88.00" arrivalLane="28594060#4_0" arrivalPos="123.22" arrivalSpeed="15.99" duration="59.00" routeLength="731.01" waitingTime="2.00" waitingCount="1" stopTime="0.00" timeLoss="15.06" rerouteNo="0" devices="tripinfo_4220s4221n_70" vType="type1" speedFactor="1.02" vaporized=""/>
    <tripinfo id="north4221_24" depart="17.00" departLane="-620463733_0" departPos="5.10" departSpeed="0.00" departDelay="7.00" arrival="89.00" arrivalLane="28594060#4_0" arrivalPos="123.22" arrivalSpeed="13.06" duration="72.00" routeLength="885.44" waitingTime="0.00" waitingCount="0" stopTime="0.00" timeLoss="9.43" rerouteNo="0" devices="tripinfo_north4221_24" vType="type1" speedFactor="0.83" vaporized=""/>
    <tripinfo id="south4219_15" depart="6.00" departLane="620377506_0" departPos="5.10" departSpeed="0.00" departDelay="0.00" arrival="90.00" arrivalLane="547625725_1" arrivalPos="73.62" arrivalSpeed="18.66" duration="84.00" routeLength="808.30" waitingTime="20.00" waitingCount="1" stopTime="0.00" timeLoss="32.61" rerouteNo="0" devices="tripinfo_south4219_15" vType="type1" speedFactor="0.93" vaporized=""/>
    <tripinfo id="south4219_19" depart="9.00" departLane="620377506_0" departPos="5.10" departSpeed="0.00" departDelay="2.00" arrival="91.00" arrivalLane="547625725_0" arrivalPos="73.62" arrivalSpeed="18.94" duration="82.00" routeLength="808.30" waitingTime="26.00" waitingCount="1" stopTime="0.00" timeLoss="40.58" rerouteNo="0" devices="tripinfo_south4219_19" vType="type1" speedFactor="1.16" vaporized=""/>
    <tripinfo id="south4219_43" depart="19.00" departLane="620377506_0" departPos="5.10" departSpeed="0.00" departDelay="2.00" arrival="92.00" arrivalLane="547625725_1" arrivalPos="73.62" arrivalSpeed="19.93" duration="73.00" routeLength="808.30" waitingTime="15.00" waitingCount="1" stopTime="0.00" timeLoss="27.09" rerouteNo="0" devices="tripinfo_south4219_43" vType="type1" speedFactor="1.04" vaporized=""/>
    <tripinfo id="4235e4219n_17" depart="15.00" departLane="619523290#0_0" departPos="5.10" departSpeed="0.00" departDelay="9.00" arrival="93.00" arrivalLane="620377501#0_0" arrivalPos="20.24" arrivalSpeed="14.74" duration="78.00" routeLength="724.98" waitingTime="18.00" waitingCount="1" stopTime="0.00" timeLoss="31.31" rerouteNo="0" devices="tripinfo_4235e4219n_17" vType="type1" speedFactor="0.94" vaporized=""/>
    <tripinfo id="4235e4219n_20" depart="18.00" departLane="619523290#0_0" departPos="5.10" departSpeed="0.00" departDelay="11.00" arrival="93.00" arrivalLane="620377501#0_1" arrivalPos="20.24" arrivalSpeed="16.63" duration="75.00" routeLength="724.98" waitingTime="16.00" waitingCount="1" stopTime="0.00" timeLoss="31.92" rerouteNo="0" devices="tripinfo_4235e4219n_20" vType="type1" speedFactor="1.02" vaporized=""/>
    <tripinfo id="south4219_38" depart="16.00" departLane="620377506_0" departPos="5.10" departSpeed="0.00" departDelay="0.00" arrival="93.00" arrivalLane="547625725_0" arrivalPos="73.62" arrivalSpeed="19.06" duration="77.00" routeLength="808.30" waitingTime="18.00" waitingCount="1" stopTime="0.00" timeLoss="33.27" rerouteNo="0" devices="tripinfo_south4219_38" vType="type1" speedFactor="1.10" vaporized=""/>
    <tripinfo id="south4220_99" depart="45.00" departLane="gneE10.441_0" departPos="5.10" departSpeed="0.00" departDelay="1.00" arrival="93.00" arrivalLane="gneE41_0" arrivalPos="453.36" arrivalSpeed="14.89" duration="48.00" routeLength="476.04" waitingTime="7.00" waitingCount="1" stopTime="0.00" timeLoss="16.22" rerouteNo="0" devices="tripinfo_south4220_99" vType="type1" speedFactor="1.10" vaporized=""/>
    <tripinfo id="south4219_79" depart="33.00" departLane="620377506_0" departPos="5.10" departSpeed="0.00" departDelay="0.00" arrival="94.00" arrivalLane="547625725_1" arrivalPos="73.62" arrivalSpeed="20.30" duration="61.00" routeLength="808.30" waitingTime="3.00" waitingCount="1" stopTime="0.00" timeLoss="16.94" rerouteNo="0" devices="tripinfo_south4219_79" vType="type1" speedFactor="1.09" vaporized=""/>
    <tripinfo id="south4219_85" depart="37.00" departLane="620377506_0" departPos="5.10" departSpeed="0.00" departDelay="0.00" arrival="94.00" arrivalLane="547625725_0" arrivalPos="73.62" arrivalSpeed="18.56" duration="57.00" routeLength="808.30" waitingTime="0.00" waitingCount="0" stopTime="0.00" timeLoss="8.17" rerouteNo="0" devices="tripinfo_south4219_85" vType="type1" speedFactor="0.98" vaporized=""/>
    <tripinfo id="4235e4219n_23" depart="21.00" departLane="619523290#0_0" departPos="5.10" departSpeed="0.00" departDelay="12.00" arrival="95.00" arrivalLane="620377501#0_1" arrivalPos="20.24" arrivalSpeed="14.52" duration="74.00" routeLength="724.98" waitingTime="11.00" waitingCount="2" stopTime="0.00" timeLoss="24.93" rerouteNo="0" devices="tripinfo_4235e4219n_23" vType="type1" speedFactor="0.89" vaporized=""/>
    <tripinfo id="4235e4219n_30" depart="26.00" departLane="619523290#0_0" departPos="5.10" departSpeed="0.00" departDelay="13.00" arrival="95.00" arrivalLane="620377501#0_0" arrivalPos="20.24" arrivalSpeed="19.33" duration="69.00" routeLength="724.98" waitingTime="16.00" waitingCount="1" stopTime="0.00" timeLoss="31.12" rerouteNo="0" devices="tripinfo_4235e4219n_30" vType="type1" speedFactor="1.18" vaporized=""/>
    <tripinfo id="4235e4219n_32" depart="29.00" departLane="619523290#0_0" departPos="5.10" departSpeed="0.00" departDelay="15.00" arrival="96.00" arrivalLane="620377501#0_0" arrivalPos="20.24" arrivalSpeed="16.14" duration="67.00" routeLength="724.98" waitingTime="11.00" waitingCount="1" stopTime="0.00" timeLoss="23.45" rerouteNo="0" devices="tripinfo_4235e4219n_32" vType="type1" speedFactor="1.01" vaporized=""/>
    <tripinfo id="south4219_98" depart="46.00" departLane="620377506_0" departPos="5.10" departSpeed="0.00" departDelay="2.00" arrival="96.00" arrivalLane="547625725_1" arrivalPos="73.62" arrivalSpeed="23.65" duration="50.00" routeLength="808.30" waitingTime="0.00" waitingCount="0" stopTime="0.00" timeLoss="6.94" rerouteNo="0" devices="tripinfo_south4219_98" vType="type1" speedFactor="1.12" vaporized=""/>
    <tripinfo id="south4220_108" depart="48.00" departLane="gneE10.441_0" departPos="5.10" departSpeed="0.00" departDelay="0.00" arrival="96.00" arrivalLane="gneE41_0" arrivalPos="453.36" arrivalSpeed="13.99" duration="48.00" routeLength="476.04" waitingTime="6.00" waitingCount="1" stopTime="0.00" timeLoss="15.56" rerouteNo="0" devices="tripinfo_south4220_108" vType="type1" speedFactor="1.06" vaporized=""/>
    <tripinfo id="4235e4219n_39" depart="41.00" departLane="619523290#0_0" departPos="5.10" departSpeed="0.00" departDelay="25.00" arrival="99.00" arrivalLane="620377501#0_0" arrivalPos="20.24" arrivalSpeed="14.97" duration="58.00" routeLength="724.98" waitingTime="0.00" waitingCount="0" stopTime="0.00" timeLoss="9.41" rerouteNo="0" devices="tripinfo_4235e4219n_39" vType="type1" speedFactor="0.90" vaporized=""/>
    <tripinfo id="nw4235_138" depart="62.00" departLane="-628341438#1_0" departPos="5.10" departSpeed="0.00" departDelay="0.00" arrival="99.00" arrivalLane="619523287#1_0" arrivalPos="83.27" arrivalSpeed="16.16" duration="37.00" routeLength="265.87" waitingTime="10.00" waitingCount="1" stopTime="0.00" timeLoss="20.32" rerouteNo="0" devices="tripinfo_nw4235_138" vType="type1" speedFactor="1.00" vaporized=""/>
    <tripinfo id="south4220_129" depart="57.00" departLane="gneE10.441_0" departPos="5.10" departSpeed="0.00" departDelay="0.00" arrival="100.00" arrivalLane="gneE41_0" arrivalPos="453.36" arrivalSpeed="13.78" duration="43.00" routeLength="476.04" waitingTime="0.00" waitingCount="0" stopTime="0.00" timeLoss="8.04" rerouteNo="0" devices="tripinfo_south4220_129" vType="type1" speedFactor="1.01" vaporized=""/>
    <tripinfo id="4220s4221s_130" depart="62.00" departLane="gneE10.441_0" departPos="5.10" departSpeed="0.00" departDelay="5.00" arrival="101.00" arrivalLane="620463733_0" arrivalPos="133.76" arrivalSpeed="16.30" duration="39.00" routeLength="431.72" waitingTime="0.00" waitingCount="0" stopTime="0.00" timeLoss="12.98" rerouteNo="0" devices="tripinfo_4220s4221s_130" vType="type1" speedFactor="1.03" vaporized=""/>
    <tripinfo id="north4221_29" depart="23.00" departLane="-620463733_0" departPos="5.10" departSpeed="0.00" departDelay="10.00" arrival="102.00" arrivalLane="28594060#4_0" arrivalPos="123.22" arrivalSpeed="14.81" duration="79.00" routeLength="885.44" waitingTime="9.00" waitingCount="1" stopTime="0.00" timeLoss="23.96" rerouteNo="0" devices="tripinfo_north4221_29" vType="type1" speedFactor="0.93" vaporized=""/>
    <tripinfo id="4221n4220s_51" depart="41.00" departLane="-620463733_0" departPos="5.10" departSpeed="0.00" departDelay="21.00" arrival="102.00" arrivalLane="gneE41_0" arrivalPos="453.36" arrivalSpeed="15.81" duration="61.00" routeLength="868.52" waitingTime="0.00" waitingCount="0" stopTime="0.00" timeLoss="11.14" rerouteNo="0" devices="tripinfo_4221n4220s_51" vType="type1" speedFactor="1.17" vaporized=""/>
    <tripinfo id="north4221_26" depart="20.00" departLane="-620463733_0" departPos="5.10" departSpeed="0.00" departDelay="9.00" arrival="103.00" arrivalLane="28594060#4_1" arrivalPos="123.22" arrivalSpeed="14.67" duration="83.00" routeLength="885.44" waitingTime="12.00" waitingCount="1" stopTime="0.00" timeLoss="26.56" rerouteNo="0" devices="tripinfo_north4221_26" vType="type1" speedFactor="0.92" vaporized=""/>
    <tripinfo id="north4221_36" depart="26.00" departLane="-620463733_0" departPos="5.10" departSpeed="0.00" departDelay="11.00" arrival="104.00" arrivalLane="28594060#4_0" arrivalPos="123.22" arrivalSpeed="16.13" duration="78.00" routeLength="885.44" waitingTime="7.00" waitingCount="1" stopTime="0.00" timeLoss="24.99" rerouteNo="0" devices="tripinfo_north4221_36" vType="type1" speedFactor="0.97" vaporized=""/>
    <tripinfo id="north4221_44" depart="32.00" departLane="-620463733_0" departPos="5.10" departSpeed="0.00" departDelay="15.00" arrival="104.00" arrivalLane="28594060#4_1" arrivalPos="123.22" arrivalSpeed="15.27" duration="72.00" routeLength="885.44" waitingTime="3.00" waitingCount="1" stopTime="0.00" timeLoss="22.98" rerouteNo="0" devices="tripinfo_north4221_44" vType="type1" speedFactor="1.04" vaporized=""/>
    <tripinfo id="north4221_46" depart="35.00" departLane="-620463733_0" departPos="5.10" departSpeed="0.00" departDelay="17.00" arrival="105.00" arrivalLane="28594060#4_0" arrivalPos="123.22" arrivalSpeed="15.68" duration="70.00" routeLength="885.44" waitingTime="2.00" waitingCount="1" stopTime="0.00" timeLoss="18.36" rerouteNo="0" devices="tripinfo_north4221_46" vType="type1" speedFactor="1.00" vaporized=""/>
    <tripinfo id="4219s4235w_37" depart="15.00" departLane="620377506_0" departPos="5.10" departSpeed="0.00" departDelay="0.00" arrival="106.00" arrivalLane="619523287#1_0" arrivalPos="83.27" arrivalSpeed="19.10" duration="91.00" routeLength="1117.47" waitingTime="20.00" waitingCount="1" stopTime="0.00" timeLoss="34.01" rerouteNo="0" devices="tripinfo_4219s4235w_37" vType="type1" speedFactor="1.18" vaporized=""/>
    <tripinfo id="4220s4221e_95" depart="42.00" departLane="gneE10.441_0" departPos="5.10" departSpeed="0.00" departDelay="0.00" arrival="106.00" arrivalLane="28573015#6_0" arrivalPos="68.82" arrivalSpeed="16.44" duration="64.00" routeLength="523.65" waitingTime="22.00" waitingCount="1" stopTime="0.00" timeLoss="33.68" rerouteNo="0" devices="tripinfo_4220s4221e_95" vType="type1" speedFactor="1.06" vaporized=""/>
    <tripinfo id="north4221_59" depart="47.00" departLane="-620463733_0" departPos="5.10" departSpeed="0.00" departDelay="22.00" arrival="108.00" arrivalLane="28594060#4_1" arrivalPos="123.22" arrivalSpeed="15.56" duration="61.00" routeLength="885.44" waitingTime="0.00" waitingCount="0" stopTime="0.00" timeLoss="7.93" rerouteNo="0" devices="tripinfo_north4221_59" vType="type1" speedFactor="0.97" vaporized=""/>
    <tripinfo id="4219s4221e_4" depart="1.00" departLane="620377506_0" departPos="5.10" departSpeed="0.00" departDelay="0.00" arrival="109.00" arrivalLane="28573015#6_0" arrivalPos="68.82" arrivalSpeed="15.96" duration="108.00" routeLength="1271.65" waitingTime="16.00" waitingCount="1" stopTime="0.00" timeLoss="32.98" rerouteNo="0" devices="tripinfo_4219s4221e_4" vType="type1" speedFactor="1.03" vaporized=""/>
    <tripinfo id="north4221_49" depart="38.00" departLane="-620463733_0" departPos="5.10" departSpeed="0.00" departDelay="18.00" arrival="109.00" arrivalLane="28594060#4_0" arrivalPos="123.22" arrivalSpeed="13.96" duration="71.00" routeLength="885.44" waitingTime="0.00" waitingCount="0" stopTime="0.00" timeLoss="10.72" rerouteNo="0" devices="tripinfo_north4221_49" vType="type1" speedFactor="0.85" vaporized=""/>
    <tripinfo id="4219s4235w_62" depart="25.00" departLane="620377506_0" departPos="5.10" departSpeed="0.00" departDelay="0.00" arrival="110.00" arrivalLane="619523287#1_0" arrivalPos="83.27" arrivalSpeed="15.89" duration="85.00" routeLength="1117.47" waitingTime="6.00" waitingCount="1" stopTime="0.00" timeLoss="18.55" rerouteNo="0" devices="tripinfo_4219s4235w_62" vType="type1" speedFactor="1.02" vaporized=""/>
    <tripinfo id="4221n4219n_56" depart="44.00" departLane="-620463733_0" departPos="5.10" departSpeed="0.00" departDelay="21.00" arrival="112.00" arrivalLane="620377501#0_1" arrivalPos="20.24" arrivalSpeed="14.23" duration="68.00" routeLength="633.24" waitingTime="13.00" waitingCount="1" stopTime="0.00" timeLoss="25.62" rerouteNo="0" devices="tripinfo_4221n4219n_56" vType="type1" speedFactor="0.90" vaporized=""/>
    <tripinfo id="north4221_74" depart="50.00" departLane="-620463733_0" departPos="5.10" departSpeed="0.00" departDelay="19.00" arrival="112.00" arrivalLane="28594060#4_0" arrivalPos="123.22" arrivalSpeed="15.85" duration="62.00" routeLength="885.44" waitingTime="0.00" waitingCount="0" stopTime="0.00" timeLoss="6.92" rerouteNo="0" devices="tripinfo_north4221_74" vType="type1" speedFactor="0.96" vaporized=""/>
    <tripinfo id="4220s4219n_128" depart="55.00" departLane="gneE10.441_0" departPos="5.10" departSpeed="0.00" departDelay="0.00" arrival="112.00" arrivalLane="620377501#0_0" arrivalPos="20.24" arrivalSpeed="17.82" duration="57.00" routeLength="243.00" waitingTime="29.00" waitingCount="1" stopTime="0.00" timeLoss="43.49" rerouteNo="0" devices="tripinfo_4220s4219n_128" vType="type1" speedFactor="1.12" vaporized=""/>
    <tripinfo id="north4221_76" depart="53.00" departLane="-620463733_0" departPos="5.10" departSpeed="0.00" departDelay="21.00" arrival="113.00" arrivalLane="28594060#4_0" arrivalPos="123.22" arrivalSpeed="17.16" duration="60.00" routeLength="885.44" waitingTime="0.00" waitingCount="0" stopTime="0.00" timeLoss="10.11" rerouteNo="0" devices="tripinfo_north4221_76" vType="type1" speedFactor="1.03" vaporized=""/>
    <tripinfo id="4220s4221e_165" depart="71.00" departLane="gneE10.441_0" departPos="5.10" departSpeed="0.00" departDelay="0.00" arrival="113.00" arrivalLane="28573015#6_0" arrivalPos="68.82" arrivalSpeed="15.12" duration="42.00" routeLength="523.65" waitingTime="0.00" waitingCount="0" stopTime="0.00" timeLoss="6.84" rerouteNo="0" devices="tripinfo_4220s4221e_165" vType="type1" speedFactor="0.91" vaporized=""/>
    <tripinfo id="4220s4219n_131" depart="65.00" departLane="gneE10.441_0" departPos="5.10" departSpeed="0.00" departDelay="7.00" arrival="114.00" arrivalLane="620377501#0_1" arrivalPos="20.24" arrivalSpeed="16.51" duration="49.00" routeLength="243.00" waitingTime="18.00" waitingCount="1" stopTime="0.00" timeLoss="34.68" rerouteNo="0" devices="tripinfo_4220s4219n_131" vType="type1" speedFactor="1.07" vaporized=""/>
    <tripinfo id="4220s4219n_166" depart="74.00" departLane="gneE10.441_0" departPos="5.10" departSpeed="0.00" departDelay="3.00" arrival="114.00" arrivalLane="620377501#0_2" arrivalPos="20.24" arrivalSpeed="15.44" duration="40.00" routeLength="243.00" waitingTime="13.00" waitingCount="1" stopTime="0.00" timeLoss="24.52" rerouteNo="0" devices="tripinfo_4220s4219n_166" vType="type1" speedFactor="1.00" vaporized=""/>
    <tripinfo id="4235e4221e_3" depart="3.00" departLane="619523290#0_0" departPos="5.10" departSpeed="0.00" departDelay="2.00" arrival="115.00" arrivalLane="28573015#6_0" arrivalPos="68.82" arrivalSpeed="16.75" duration="112.00" routeLength="1193.40" waitingTime="16.00" waitingCount="2" stopTime="0.00" timeLoss="44.99" rerouteNo="0" devices="tripinfo_4235e4221e_3" vType="type1" speedFactor="1.08" vaporized=""/>
    <tripinfo id="4220s4219n_181" depart="81.00" departLane="gneE10.441_0" departPos="5.10" departSpeed="0.00" departDelay="0.00" arrival="115.00" arrivalLane="620377501#0_2" arrivalPos="20.24" arrivalSpeed="16.64" duration="34.00" routeLength="243.00" waitingTime="8.00" waitingCount="2" stopTime="0.00" timeLoss="19.51" rerouteNo="0" devices="tripinfo_4220s4219n_181" vType="type1" speedFactor="1.03" vaporized=""/>
    <tripinfo id="4235e4221e_10" depart="9.00" departLane="619523290#0_0" departPos="5.10" departSpeed="0.00" departDelay="5.00" arrival="117.00" arrivalLane="28573015#6_0" arrivalPos="68.82" arrivalSpeed="17.57" duration="108.00" routeLength="1193.40" waitingTime="13.00" waitingCount="2" stopTime="0.00" timeLoss="41.18" rerouteNo="0" devices="tripinfo_4235e4221e_10" vType="type1" speedFactor="1.09" vaporized=""/>
    <tripinfo id="4220s4219n_199" depart="89.00" departLane="gneE10.441_0" departPos="5.10" departSpeed="0.00" departDelay="2.00" arrival="117.00" arrivalLane="620377501#0_0" arrivalPos="20.24" arrivalSpeed="12.89" duration="28.00" routeLength="243.00" waitingTime="0.00" waitingCount="0" stopTime="0.00" timeLoss="9.48" rerouteNo="0" devices="tripinfo_4220s4219n_199" vType="type1" speedFactor="0.83" vaporized=""/>