<?xml version="1.0" encoding="UTF-8"?>

<!-- generated on 07/16/20 11:36:32 by Eclipse SUMO GUI Version 1.5.0
<configuration xmlns:xsi="http://www.w3.org/2001/XMLSchema-instance" xsi:noNamespaceSchemaLocation="http://sumo.dlr.de/xsd/sumoConfiguration.xsd">

    <input>
        <net-file value="simulation/osm.net.xml"/>
        <route-files value="simulation/osm.rou.xml"/>
        <additional-files value="simulation/osm.det.xml"/>
    </input>

    <output>
        <tripinfo-output value="output/tripinfoSCATS.xml"/>
    </output>

    <time>
        <begin value="0"/>
    </time>

    <report>
        <verbose value="true"/>
        <no-step-log value="true"/>
    </report>

    <traci_server>
        <remote-port value="64710"/>
    </traci_server>

</configuration>
-->

<tripinfos xmlns:xsi="http://www.w3.org/2001/XMLSchema-instance" xsi:noNamespaceSchemaLocation="http://sumo.dlr.de/xsd/tripinfo_file.xsd">
    <tripinfo id="4235e4219s_1" depart="7.00" departLane="619523290#0_0" departPos="5.10" departSpeed="0.00" departDelay="0.00" arrival="63.00" arrivalLane="547625725_0" arrivalPos="73.62" arrivalSpeed="20.55" duration="56.00" routeLength="790.43" waitingTime="0.00" waitingCount="0" stopTime="0.00" timeLoss="6.03" rerouteNo="0" devices="tripinfo_4235e4219s_1" vType="type1" speedFactor="0.94" vaporized=""/>
    <tripinfo id="4235e4219n_3" depart="33.00" departLane="619523290#0_0" departPos="5.10" departSpeed="0.00" departDelay="0.00" arrival="86.00" arrivalLane="620377501#0_0" arrivalPos="20.24" arrivalSpeed="17.12" duration="53.00" routeLength="798.42" waitingTime="0.00" waitingCount="0" stopTime="0.00" timeLoss="8.47" rerouteNo="0" devices="tripinfo_4235e4219n_3" vType="type1" speedFactor="1.08" vaporized=""/>
    <tripinfo id="se4235_9" depart="65.00" departLane="619523290#0_0" departPos="5.10" departSpeed="0.00" departDelay="0.00" arrival="106.00" arrivalLane="628341438#1_0" arrivalPos="36.44" arrivalSpeed="11.09" duration="41.00" routeLength="412.34" waitingTime="0.00" waitingCount="0" stopTime="0.00" timeLoss="9.39" rerouteNo="0" devices="tripinfo_se4235_9" vType="type1" speedFactor="0.86" vaporized=""/>
    <tripinfo id="4235e4221n_0" depart="4.00" departLane="619523290#0_0" departPos="5.10" departSpeed="0.00" departDelay="0.00" arrival="107.00" arrivalLane="28594060#4_0" arrivalPos="123.22" arrivalSpeed="17.63" duration="103.00" routeLength="1592.82" waitingTime="0.00" waitingCount="0" stopTime="0.00" timeLoss="11.76" rerouteNo="0" devices="tripinfo_4235e4221n_0" vType="type1" speedFactor="1.06" vaporized=""/>
    <tripinfo id="north4219_12" depart="75.00" departLane="620377515_0" departPos="5.10" departSpeed="0.00" departDelay="0.00" arrival="120.00" arrivalLane="620377501#0_0" arrivalPos="20.24" arrivalSpeed="12.84" duration="45.00" routeLength="301.34" waitingTime="15.00" waitingCount="1" stopTime="0.00" timeLoss="28.47" rerouteNo="0" devices="tripinfo_north4219_12" vType="type1" speedFactor="1.05" vaporized=""/>
    <tripinfo id="north4219_14" depart="78.00" departLane="620377515_0" departPos="5.10" departSpeed="0.00" departDelay="0.00" arrival="120.00" arrivalLane="620377501#0_1" arrivalPos="20.24" arrivalSpeed="16.11" duration="42.00" routeLength="301.34" waitingTime="12.00" waitingCount="1" stopTime="0.00" timeLoss="24.09" rerouteNo="0" devices="tripinfo_north4219_14" vType="type1" speedFactor="0.99" vaporized=""/>
    <tripinfo id="north4219_19" depart="106.00" departLane="620377515_0" departPos="5.10" departSpeed="0.00" departDelay="0.00" arrival="127.00" arrivalLane="620377501#0_0" arrivalPos="20.24" arrivalSpeed="18.13" duration="21.00" routeLength="301.34" waitingTime="0.00" waitingCount="0" stopTime="0.00" timeLoss="5.74" rerouteNo="0" devices="tripinfo_north4219_19" vType="type1" speedFactor="1.16" vaporized=""/>
    <tripinfo id="north4219_23" depart="109.00" departLane="620377515_0" departPos="5.10" departSpeed="0.00" departDelay="1.00" arrival="134.00" arrivalLane="620377501#0_0" arrivalPos="20.24" arrivalSpeed="14.23" duration="25.00" routeLength="301.34" waitingTime="0.00" waitingCount="0" stopTime="0.00" timeLoss="5.19" rerouteNo="0" devices="tripinfo_north4219_23" vType="type1" speedFactor="0.89" vaporized=""/>
    <tripinfo id="nw4235_17" depart="99.00" departLane="-628341438#1_0" departPos="5.10" departSpeed="0.00" departDelay="0.00" arrival="135.00" arrivalLane="619523287#1_0" arrivalPos="83.27" arrivalSpeed="14.68" duration="36.00" routeLength="291.25" waitingTime="5.00" waitingCount="1" stopTime="0.00" timeLoss="15.40" rerouteNo="0" devices="tripinfo_nw4235_17" vType="type1" speedFactor="0.94" vaporized=""/>
    <tripinfo id="4235e4219n_11" depart="71.00" departLane="619523290#0_0" departPos="5.10" departSpeed="0.00" departDelay="0.00" arrival="136.00" arrivalLane="620377501#0_0" arrivalPos="20.24" arrivalSpeed="16.49" duration="65.00" routeLength="798.42" waitingTime="5.00" waitingCount="1" stopTime="0.00" timeLoss="18.06" rerouteNo="0" devices="tripinfo_4235e4219n_11" vType="type1" speedFactor="1.03" vaporized=""/>
    <tripinfo id="4235e4219n_13" depart="76.00" departLane="619523290#0_0" departPos="5.10" departSpeed="0.00" departDelay="0.00" arrival="137.00" arrivalLane="620377501#0_1" arrivalPos="20.24" arrivalSpeed="18.00" duration="61.00" routeLength="798.42" waitingTime="3.00" waitingCount="1" stopTime="0.00" timeLoss="18.32" rerouteNo="0" devices="tripinfo_4235e4219n_13" vType="type1" speedFactor="1.12" vaporized=""/>
    <tripinfo id="south4219_25" depart="118.00" departLane="620377506_0" departPos="5.10" departSpeed="0.00" departDelay="0.00" arrival="141.00" arrivalLane="547625725_0" arrivalPos="73.62" arrivalSpeed="18.87" duration="23.00" routeLength="287.99" waitingTime="0.00" waitingCount="0" stopTime="0.00" timeLoss="3.91" rerouteNo="0" devices="tripinfo_south4219_25" vType="type1" speedFactor="0.87" vaporized=""/>
    <tripinfo id="south4220_10" depart="65.00" departLane="gneE10_0" departPos="5.10" departSpeed="0.00" departDelay="0.00" arrival="152.00" arrivalLane="gneE41_0" arrivalPos="28.67" arrivalSpeed="14.52" duration="87.00" routeLength="130.18" waitingTime="67.00" waitingCount="1" stopTime="0.00" timeLoss="77.79" rerouteNo="0" devices="tripinfo_south4220_10" vType="type1" speedFactor="1.09" vaporized=""/>
    <tripinfo id="south4220_16" depart="89.00" departLane="gneE10_0" departPos="5.10" departSpeed="0.00" departDelay="0.00" arrival="154.00" arrivalLane="gneE41_0" arrivalPos="28.67" arrivalSpeed="11.45" duration="65.00" routeLength="130.18" waitingTime="44.00" waitingCount="1" stopTime="0.00" timeLoss="53.88" rerouteNo="0" devices="tripinfo_south4220_16" vType="type1" speedFactor="0.88" vaporized=""/>
    <tripinfo id="se4235_26" depart="124.00" departLane="619523290#0_0" departPos="5.10" departSpeed="0.00" departDelay="0.00" arrival="159.00" arrivalLane="628341438#1_0" arrivalPos="36.44" arrivalSpeed="11.87" duration="35.00" routeLength="412.34" waitingTime="0.00" waitingCount="0" stopTime="0.00" timeLoss="6.20" rerouteNo="0" devices="tripinfo_se4235_26" vType="type1" speedFactor="0.92" vaporized=""/>
    <tripinfo id="4220s4219n_2" depart="31.00" departLane="gneE10_0" departPos="5.10" departSpeed="0.00" departDelay="0.00" arrival="162.00" arrivalLane="620377501#0_0" arrivalPos="20.24" arrivalSpeed="16.72" duration="131.00" routeLength="385.22" waitingTime="95.00" waitingCount="1" stopTime="0.00" timeLoss="106.18" rerouteNo="0" devices="tripinfo_4220s4219n_2" vType="type1" speedFactor="1.01" vaporized=""/>
    <tripinfo id="south4221_15" depart="82.00" departLane="-28594060#4_0" departPos="5.10" departSpeed="0.00" departDelay="0.00" arrival="165.00" arrivalLane="620463733_0" arrivalPos="133.76" arrivalSpeed="14.74" duration="83.00" routeLength="972.31" waitingTime="7.00" waitingCount="1" stopTime="0.00" timeLoss="19.15" rerouteNo="0" devices="tripinfo_south4221_15" vType="type1" speedFactor="0.93" vaporized=""/>
    <tripinfo id="4220s4219n_5" depart="43.00" departLane="gneE10_0" departPos="5.10" departSpeed="0.00" departDelay="0.00" arrival="169.00" arrivalLane="620377501#0_0" arrivalPos="20.24" arrivalSpeed="12.55" duration="126.00" routeLength="385.22" waitingTime="85.00" waitingCount="1" stopTime="0.00" timeLoss="95.70" rerouteNo="0" devices="tripinfo_4220s4219n_5" vType="type1" speedFactor="0.83" vaporized=""/>
    <tripinfo id="4235e4219n_21" depart="107.00" departLane="619523290#0_0" departPos="5.10" departSpeed="0.00" departDelay="0.00" arrival="171.00" arrivalLane="620377501#0_0" arrivalPos="20.24" arrivalSpeed="16.62" duration="64.00" routeLength="798.42" waitingTime="1.00" waitingCount="1" stopTime="0.00" timeLoss="15.84" rerouteNo="0" devices="tripinfo_4235e4219n_21" vType="type1" speedFactor="1.01" vaporized=""/>
    <tripinfo id="4235e4219n_24" depart="111.00" departLane="619523290#0_0" departPos="5.10" departSpeed="0.00" departDelay="0.00" arrival="177.00" arrivalLane="620377501#0_0" arrivalPos="20.24" arrivalSpeed="13.54" duration="66.00" routeLength="798.42" waitingTime="0.00" waitingCount="0" stopTime="0.00" timeLoss="7.22" rerouteNo="0" devices="tripinfo_4235e4219n_24" vType="type1" speedFactor="0.83" vaporized=""/>
    <tripinfo id="north4221_20" depart="107.00" departLane="-620463733_0" departPos="5.10" departSpeed="0.00" departDelay="0.00" arrival="183.00" arrivalLane="28594060#4_0" arrivalPos="123.22" arrivalSpeed="15.99" duration="76.00" routeLength="979.17" waitingTime="3.00" waitingCount="1" stopTime="0.00" timeLoss="20.90" rerouteNo="0" devices="tripinfo_north4221_20" vType="type1" speedFactor="1.02" vaporized=""/>
    <tripinfo id="4235e4220n_7" depart="61.00" departLane="619523290#0_0" departPos="5.10" departSpeed="0.00" departDelay="0.00" arrival="189.00" arrivalLane="gneE44_0" arrivalPos="38.65" arrivalSpeed="12.00" duration="128.00" routeLength="859.59" waitingTime="54.00" waitingCount="2" stopTime="0.00" timeLoss="68.08" rerouteNo="0" devices="tripinfo_4235e4220n_7" vType="type1" speedFactor="0.89" vaporized=""/>
    <tripinfo id="4235e4219s_18" depart="101.00" departLane="619523290#0_0" departPos="5.10" departSpeed="0.00" departDelay="0.00" arrival="189.00" arrivalLane="547625725_0" arrivalPos="73.62" arrivalSpeed="19.93" duration="88.00" routeLength="790.43" waitingTime="19.00" waitingCount="2" stopTime="0.00" timeLoss="37.29" rerouteNo="0" devices="tripinfo_4235e4219s_18" vType="type1" speedFactor="0.94" vaporized=""/>
    <tripinfo id="north4221_28" depart="134.00" departLane="-620463733_0" departPos="5.10" departSpeed="0.00" departDelay="0.00" arrival="196.00" arrivalLane="28594060#4_0" arrivalPos="123.22" arrivalSpeed="18.39" duration="62.00" routeLength="979.17" waitingTime="0.00" waitingCount="0" stopTime="0.00" timeLoss="12.15" rerouteNo="0" devices="tripinfo_north4221_28" vType="type1" speedFactor="1.13" vaporized=""/>
    <tripinfo id="north4221_31" depart="137.00" departLane="-620463733_0" departPos="5.10" departSpeed="0.00" departDelay="0.00" arrival="197.00" arrivalLane="28594060#4_0" arrivalPos="123.22" arrivalSpeed="19.14" duration="60.00" routeLength="979.17" waitingTime="0.00" waitingCount="0" stopTime="0.00" timeLoss="12.01" rerouteNo="0" devices="tripinfo_north4221_31" vType="type1" speedFactor="1.15" vaporized=""/>
    <tripinfo id="4221n4220s_39" depart="163.00" departLane="-620463733_0" departPos="5.10" departSpeed="0.00" departDelay="0.00" arrival="207.00" arrivalLane="gneE41_0" arrivalPos="28.67" arrivalSpeed="12.33" duration="44.00" routeLength="522.68" waitingTime="0.00" waitingCount="0" stopTime="0.00" timeLoss="6.81" rerouteNo="0" devices="tripinfo_4221n4220s_39" vType="type1" speedFactor="0.90" vaporized=""/>
    <tripinfo id="4219s4221s_36" depart="146.00" departLane="620377506_0" departPos="5.10" departSpeed="0.00" departDelay="0.00" arrival="218.00" arrivalLane="620463733_0" arrivalPos="133.76" arrivalSpeed="16.20" duration="72.00" routeLength="783.48" waitingTime="4.00" waitingCount="1" stopTime="0.00" timeLoss="21.63" rerouteNo="0" devices="tripinfo_4219s4221s_36" vType="type1" speedFactor="0.97" vaporized=""/>
    <tripinfo id="4235n4221e_6" depart="52.00" departLane="-628341438#1_0" departPos="5.10" departSpeed="0.00" departDelay="0.00" arrival="222.00" arrivalLane="28573015#6_0" arrivalPos="68.82" arrivalSpeed="17.01" duration="170.00" routeLength="1178.31" waitingTime="77.00" waitingCount="2" stopTime="0.00" timeLoss="99.85" rerouteNo="0" devices="tripinfo_4235n4221e_6" vType="type1" speedFactor="1.05" vaporized=""/>
    <tripinfo id="nw4235_53" depart="216.00" departLane="-628341438#1_0" departPos="5.10" departSpeed="0.00" departDelay="0.00" arrival="240.00" arrivalLane="619523287#1_0" arrivalPos="83.27" arrivalSpeed="17.65" duration="24.00" routeLength="291.25" waitingTime="0.00" waitingCount="0" stopTime="0.00" timeLoss="6.83" rerouteNo="0" devices="tripinfo_nw4235_53" vType="type1" speedFactor="1.10" vaporized=""/>
    <tripinfo id="south4219_32" depart="140.00" departLane="620377506_0" departPos="5.10" departSpeed="0.00" departDelay="2.00" arrival="251.00" arrivalLane="547625725_0" arrivalPos="73.62" arrivalSpeed="21.58" duration="111.00" routeLength="287.99" waitingTime="82.00" waitingCount="1" stopTime="0.00" timeLoss="94.92" rerouteNo="0" devices="tripinfo_south4219_32" vType="type1" speedFactor="1.01" vaporized=""/>
    <tripinfo id="south4219_30" depart="137.00" departLane="620377506_0" departPos="5.10" departSpeed="0.00" departDelay="0.00" arrival="252.00" arrivalLane="547625725_0" arrivalPos="73.62" arrivalSpeed="17.95" duration="115.00" routeLength="287.99" waitingTime="87.00" waitingCount="1" stopTime="0.00" timeLoss="101.14" rerouteNo="0" devices="tripinfo_south4219_30" vType="type1" speedFactor="1.18" vaporized=""/>
    <tripinfo id="south4219_51" depart="213.00" departLane="620377506_0" departPos="5.10" departSpeed="0.00" departDelay="0.00" arrival="253.00" arrivalLane="547625725_1" arrivalPos="73.62" arrivalSpeed="23.91" duration="40.00" routeLength="287.99" waitingTime="12.00" waitingCount="1" stopTime="0.00" timeLoss="25.72" rerouteNo="0" devices="tripinfo_south4219_51" vType="type1" speedFactor="1.17" vaporized=""/>
    <tripinfo id="south4219_41" depart="173.00" departLane="620377506_0" departPos="5.10" departSpeed="0.00" departDelay="0.00" arrival="254.00" arrivalLane="547625725_0" arrivalPos="73.62" arrivalSpeed="21.21" duration="81.00" routeLength="287.99" waitingTime="52.00" waitingCount="1" stopTime="0.00" timeLoss="63.57" rerouteNo="0" devices="tripinfo_south4219_41" vType="type1" speedFactor="0.96" vaporized=""/>
    <tripinfo id="north4219_44" depart="178.00" departLane="620377515_0" departPos="5.10" departSpeed="0.00" departDelay="0.00" arrival="254.00" arrivalLane="620377501#0_0" arrivalPos="20.24" arrivalSpeed="16.44" duration="76.00" routeLength="301.34" waitingTime="47.00" waitingCount="1" stopTime="0.00" timeLoss="59.70" rerouteNo="0" devices="tripinfo_north4219_44" vType="type1" speedFactor="1.04" vaporized=""/>
    <tripinfo id="south4220_37" depart="155.00" departLane="gneE10_0" departPos="5.10" departSpeed="0.00" departDelay="0.00" arrival="256.00" arrivalLane="gneE41_0" arrivalPos="28.67" arrivalSpeed="14.42" duration="101.00" routeLength="130.18" waitingTime="80.00" waitingCount="1" stopTime="0.00" timeLoss="92.39" rerouteNo="0" devices="tripinfo_south4220_37" vType="type1" speedFactor="1.18" vaporized=""/>
    <tripinfo id="north4219_48" depart="204.00" departLane="620377515_0" departPos="5.10" departSpeed="0.00" departDelay="0.00" arrival="256.00" arrivalLane="620377501#0_0" arrivalPos="20.24" arrivalSpeed="13.77" duration="52.00" routeLength="301.34" waitingTime="19.00" waitingCount="1" stopTime="0.00" timeLoss="32.37" rerouteNo="0" devices="tripinfo_north4219_48" vType="type1" speedFactor="0.88" vaporized=""/>
    <tripinfo id="south4220_46" depart="195.00" departLane="gneE10_0" departPos="5.10" departSpeed="0.00" departDelay="0.00" arrival="258.00" arrivalLane="gneE41_0" arrivalPos="28.67" arrivalSpeed="13.18" duration="63.00" routeLength="130.18" waitingTime="40.00" waitingCount="1" stopTime="0.00" timeLoss="52.68" rerouteNo="0" devices="tripinfo_south4220_46" vType="type1" speedFactor="1.00" vaporized=""/>
    <tripinfo id="south4219_58" depart="248.00" departLane="620377506_0" departPos="5.10" departSpeed="0.00" departDelay="0.00" arrival="269.00" arrivalLane="547625725_0" arrivalPos="73.62" arrivalSpeed="22.20" duration="21.00" routeLength="287.99" waitingTime="0.00" waitingCount="0" stopTime="0.00" timeLoss="4.83" rerouteNo="0" devices="tripinfo_south4219_58" vType="type1" speedFactor="1.02" vaporized=""/>
    <tripinfo id="4221n4220n_43" depart="180.00" departLane="-620463733_0" departPos="5.10" departSpeed="0.00" departDelay="3.00" arrival="272.00" arrivalLane="gneE44_0" arrivalPos="38.65" arrivalSpeed="13.91" duration="92.00" routeLength="550.89" waitingTime="44.00" waitingCount="1" stopTime="0.00" timeLoss="58.29" rerouteNo="0" devices="tripinfo_4221n4220n_43" vType="type1" speedFactor="1.04" vaporized=""/>
    <tripinfo id="north4219_59" depart="249.00" departLane="620377515_0" departPos="5.10" departSpeed="0.00" departDelay="0.00" arrival="272.00" arrivalLane="620377501#0_0" arrivalPos="20.24" arrivalSpeed="16.05" duration="23.00" routeLength="301.34" waitingTime="0.00" waitingCount="0" stopTime="0.00" timeLoss="4.89" rerouteNo="0" devices="tripinfo_north4219_59" vType="type1" speedFactor="0.97" vaporized=""/>
    <tripinfo id="se4235_60" depart="254.00" departLane="619523290#0_0" departPos="5.10" departSpeed="0.00" departDelay="0.00" arrival="285.00" arrivalLane="628341438#1_0" arrivalPos="36.44" arrivalSpeed="14.53" duration="31.00" routeLength="412.34" waitingTime="0.00" waitingCount="0" stopTime="0.00" timeLoss="6.58" rerouteNo="0" devices="tripinfo_se4235_60" vType="type1" speedFactor="1.08" vaporized=""/>
    <tripinfo id="se4221_49" depart="206.00" departLane="-28594060#4_0" departPos="5.10" departSpeed="0.00" departDelay="0.00" arrival="286.00" arrivalLane="28573015#6_0" arrivalPos="68.82" arrivalSpeed="13.77" duration="80.00" routeLength="1000.38" waitingTime="0.00" waitingCount="0" stopTime="0.00" timeLoss="8.16" rerouteNo="0" devices="tripinfo_se4221_49" vType="type1" speedFactor="0.85" vaporized=""/>
    <tripinfo id="north4221_42" depart="177.00" departLane="-620463733_0" departPos="5.10" departSpeed="0.00" departDelay="0.00" arrival="288.00" arrivalLane="28594060#4_0" arrivalPos="123.22" arrivalSpeed="17.77" duration="111.00" routeLength="979.17" waitingTime="43.00" waitingCount="1" stopTime="0.00" timeLoss="59.10" rerouteNo="0" devices="tripinfo_north4221_42" vType="type1" speedFactor="1.09" vaporized=""/>
    <tripinfo id="north4221_56" depart="222.00" departLane="-620463733_0" departPos="5.10" departSpeed="0.00" departDelay="0.00" arrival="294.00" arrivalLane="28594060#4_0" arrivalPos="123.22" arrivalSpeed="14.47" duration="72.00" routeLength="979.17" waitingTime="0.00" waitingCount="0" stopTime="0.00" timeLoss="9.12" rerouteNo="0" devices="tripinfo_north4221_56" vType="type1" speedFactor="0.90" vaporized=""/>
    <tripinfo id="4221n4219n_22" depart="110.00" departLane="-620463733_0" departPos="5.10" departSpeed="0.00" departDelay="3.00" arrival="295.00" arrivalLane="620377501#0_0" arrivalPos="20.24" arrivalSpeed="16.20" duration="185.00" routeLength="807.48" waitingTime="115.00" waitingCount="2" stopTime="0.00" timeLoss="133.97" rerouteNo="0" devices="tripinfo_4221n4219n_22" vType="type1" speedFactor="0.98" vaporized=""/>
    <tripinfo id="north4221_57" depart="235.00" departLane="-620463733_0" departPos="5.10" departSpeed="0.00" departDelay="0.00" arrival="296.00" arrivalLane="28594060#4_0" arrivalPos="123.22" arrivalSpeed="18.24" duration="61.00" routeLength="979.17" waitingTime="0.00" waitingCount="0" stopTime="0.00" timeLoss="11.35" rerouteNo="0" devices="tripinfo_north4221_57" vType="type1" speedFactor="1.14" vaporized=""/>
    <tripinfo id="4219s4235w_27" depart="129.00" departLane="620377506_0" departPos="5.10" departSpeed="0.00" departDelay="0.00" arrival="305.00" arrivalLane="619523287#1_0" arrivalPos="83.27" arrivalSpeed="15.24" duration="176.00" routeLength="722.34" waitingTime="112.00" waitingCount="2" stopTime="0.00" timeLoss="129.59" rerouteNo="0" devices="tripinfo_4219s4235w_27" vType="type1" speedFactor="0.95" vaporized=""/>
    <tripinfo id="nw4235_65" depart="289.00" departLane="-628341438#1_0" departPos="5.10" departSpeed="0.00" departDelay="0.00" arrival="315.00" arrivalLane="619523287#1_0" arrivalPos="83.27" arrivalSpeed="13.86" duration="26.00" routeLength="291.25" waitingTime="0.00" waitingCount="0" stopTime="0.00" timeLoss="4.73" rerouteNo="0" devices="tripinfo_nw4235_65" vType="type1" speedFactor="0.88" vaporized=""/>
    <tripinfo id="4235e4221e_29" depart="135.00" departLane="619523290#0_0" departPos="5.10" departSpeed="0.00" departDelay="0.00" arrival="316.00" arrivalLane="28573015#6_0" arrivalPos="68.82" arrivalSpeed="14.89" duration="181.00" routeLength="1410.68" waitingTime="74.00" waitingCount="1" stopTime="0.00" timeLoss="89.15" rerouteNo="0" devices="tripinfo_4235e4221e_29" vType="type1" speedFactor="0.93" vaporized=""/>
    <tripinfo id="4221n4235w_35" depart="144.00" departLane="-620463733_0" departPos="5.10" departSpeed="0.00" departDelay="0.00" arrival="318.00" arrivalLane="619523287#1_0" arrivalPos="83.27" arrivalSpeed="16.48" duration="174.00" routeLength="1192.88" waitingTime="87.00" waitingCount="1" stopTime="0.00" timeLoss="103.02" rerouteNo="0" devices="tripinfo_4221n4235w_35" vType="type1" speedFactor="1.02" vaporized=""/>
    <tripinfo id="4235e4221e_38" depart="158.00" departLane="619523290#0_0" departPos="5.10" departSpeed="0.00" departDelay="0.00" arrival="318.00" arrivalLane="28573015#6_0" arrivalPos="68.82" arrivalSpeed="18.21" duration="160.00" routeLength="1410.68" waitingTime="60.00" waitingCount="1" stopTime="0.00" timeLoss="81.93" rerouteNo="0" devices="tripinfo_4235e4221e_38" vType="type1" speedFactor="1.10" vaporized=""/>
    <tripinfo id="4220s4235w_52" depart="214.00" departLane="gneE10_0" departPos="5.10" departSpeed="0.00" departDelay="0.00" arrival="319.00" arrivalLane="619523287#1_1" arrivalPos="83.27" arrivalSpeed="16.08" duration="105.00" routeLength="770.02" waitingTime="40.00" waitingCount="2" stopTime="0.00" timeLoss="57.86" rerouteNo="0" devices="tripinfo_4220s4235w_52" vType="type1" speedFactor="1.02" vaporized=""/>
    <tripinfo id="4221s4235w_8" depart="64.00" departLane="-28594060#4_0" departPos="5.10" departSpeed="0.00" departDelay="0.00" arrival="323.00" arrivalLane="619523287#1_0" arrivalPos="83.27" arrivalSpeed="15.32" duration="259.00" routeLength="1500.54" waitingTime="135.00" waitingCount="2" stopTime="0.00" timeLoss="161.63" rerouteNo="0" devices="tripinfo_4221s4235w_8" vType="type1" speedFactor="0.94" vaporized=""/>
    <tripinfo id="4219s4221e_50" depart="207.00" departLane="620377506_0" departPos="5.10" departSpeed="0.00" departDelay="0.00" arrival="323.00" arrivalLane="28573015#6_0" arrivalPos="68.82" arrivalSpeed="13.02" duration="116.00" routeLength="861.11" waitingTime="38.00" waitingCount="1" stopTime="0.00" timeLoss="54.23" rerouteNo="0" devices="tripinfo_4219s4221e_50" vType="type1" speedFactor="0.85" vaporized=""/>
    <tripinfo id="4235e4219s_62" depart="274.00" departLane="619523290#0_0" departPos="5.10" departSpeed="0.00" departDelay="0.00" arrival="329.00" arrivalLane="547625725_0" arrivalPos="73.62" arrivalSpeed="21.65" duration="55.00" routeLength="790.43" waitingTime="0.00" waitingCount="0" stopTime="0.00" timeLoss="8.13" rerouteNo="0" devices="tripinfo_4235e4219s_62" vType="type1" speedFactor="1.02" vaporized=""/>
    <tripinfo id="4235e4219s_64" depart="287.00" departLane="619523290#0_0" departPos="5.10" departSpeed="0.00" departDelay="0.00" arrival="343.00" arrivalLane="547625725_0" arrivalPos="73.62" arrivalSpeed="20.47" duration="56.00" routeLength="790.43" waitingTime="0.00" waitingCount="0" stopTime="0.00" timeLoss="6.08" rerouteNo="0" devices="tripinfo_4235e4219s_64" vType="type1" speedFactor="0.94" vaporized=""/>
    <tripinfo id="4219s4220n_82" depart="332.00" departLane="620377506_0" departPos="5.10" departSpeed="0.00" departDelay="0.00" arrival="358.00" arrivalLane="gneE44_0" arrivalPos="38.65" arrivalSpeed="13.00" duration="26.00" routeLength="310.02" waitingTime="0.00" waitingCount="0" stopTime="0.00" timeLoss="6.79" rerouteNo="0" devices="tripinfo_4219s4220n_82" vType="type1" speedFactor="1.02" vaporized=""/>
    <tripinfo id="se4235_81" depart="331.00" departLane="619523290#0_0" departPos="5.10" departSpeed="0.00" departDelay="0.00" arrival="378.00" arrivalLane="628341438#1_0" arrivalPos="36.44" arrivalSpeed="13.27" duration="47.00" routeLength="412.34" waitingTime="9.00" waitingCount="1" stopTime="0.00" timeLoss="20.15" rerouteNo="0" devices="tripinfo_se4235_81" vType="type1" speedFactor="1.00" vaporized=""/>
    <tripinfo id="south4219_71" depart="298.00" departLane="620377506_0" departPos="5.10" departSpeed="0.00" departDelay="2.00" arrival="391.00" arrivalLane="547625725_0" arrivalPos="73.62" arrivalSpeed="21.41" duration="93.00" routeLength="287.99" waitingTime="63.00" waitingCount="1" stopTime="0.00" timeLoss="75.94" rerouteNo="0" devices="tripinfo_south4219_71" vType="type1" speedFactor="0.97" vaporized=""/>
    <tripinfo id="4235e4219n_33" depart="139.00" departLane="619523290#0_0" departPos="5.10" departSpeed="0.00" departDelay="0.00" arrival="392.00" arrivalLane="620377501#0_0" arrivalPos="20.24" arrivalSpeed="19.23" duration="253.00" routeLength="798.42" waitingTime="196.00" waitingCount="1" stopTime="0.00" timeLoss="211.99" rerouteNo="0" devices="tripinfo_4235e4219n_33" vType="type1" speedFactor="1.17" vaporized=""/>
    <tripinfo id="south4219_70" depart="295.00" departLane="620377506_0" departPos="5.10" departSpeed="0.00" departDelay="0.00" arrival="392.00" arrivalLane="547625725_0" arrivalPos="73.62" arrivalSpeed="20.58" duration="97.00" routeLength="287.99" waitingTime="69.00" waitingCount="1" stopTime="0.00" timeLoss="81.27" rerouteNo="0" devices="tripinfo_south4219_70" vType="type1" speedFactor="1.02" vaporized=""/>
    <tripinfo id="south4219_73" depart="309.00" departLane="620377506_0" departPos="5.10" departSpeed="0.00" departDelay="0.00" arrival="393.00" arrivalLane="547625725_1" arrivalPos="73.62" arrivalSpeed="23.39" duration="84.00" routeLength="287.99" waitingTime="56.00" waitingCount="1" stopTime="0.00" timeLoss="68.39" rerouteNo="0" devices="tripinfo_south4219_73" vType="type1" speedFactor="1.06" vaporized=""/>
    <tripinfo id="4235e4219n_34" depart="142.00" departLane="619523290#0_0" departPos="5.10" departSpeed="0.00" departDelay="0.00" arrival="394.00" arrivalLane="620377501#0_1" arrivalPos="20.24" arrivalSpeed="15.48" duration="252.00" routeLength="798.42" waitingTime="190.00" waitingCount="1" stopTime="0.00" timeLoss="203.06" rerouteNo="0" devices="tripinfo_4235e4219n_34" vType="type1" speedFactor="0.99" vaporized=""/>
    <tripinfo id="north4219_84" depart="336.00" departLane="620377515_0" departPos="5.10" departSpeed="0.00" departDelay="0.00" arrival="395.00" arrivalLane="620377501#0_0" arrivalPos="20.24" arrivalSpeed="16.85" duration="59.00" routeLength="301.34" waitingTime="29.00" waitingCount="1" stopTime="0.00" timeLoss="43.83" rerouteNo="0" devices="tripinfo_north4219_84" vType="type1" speedFactor="1.15" vaporized=""/>
    <tripinfo id="north4219_85" depart="344.00" departLane="620377515_0" departPos="5.10" departSpeed="0.00" departDelay="0.00" arrival="395.00" arrivalLane="620377501#0_1" arrivalPos="20.24" arrivalSpeed="15.26" duration="51.00" routeLength="301.34" waitingTime="22.00" waitingCount="1" stopTime="0.00" timeLoss="32.73" rerouteNo="0" devices="tripinfo_north4219_85" vType="type1" speedFactor="0.98" vaporized=""/>
    <tripinfo id="north4219_89" depart="354.00" departLane="620377515_0" departPos="5.10" departSpeed="0.00" departDelay="0.00" arrival="396.00" arrivalLane="620377501#0_1" arrivalPos="20.24" arrivalSpeed="15.84" duration="42.00" routeLength="301.34" waitingTime="13.00" waitingCount="1" stopTime="0.00" timeLoss="25.16" rerouteNo="0" devices="tripinfo_north4219_89" vType="type1" speedFactor="1.02" vaporized=""/>
    <tripinfo id="north4219_86" depart="348.00" departLane="620377515_0" departPos="5.10" departSpeed="0.00" departDelay="0.00" arrival="397.00" arrivalLane="620377501#0_0" arrivalPos="20.24" arrivalSpeed="16.55" duration="49.00" routeLength="301.34" waitingTime="17.00" waitingCount="1" stopTime="0.00" timeLoss="31.69" rerouteNo="0" devices="tripinfo_north4219_86" vType="type1" speedFactor="1.00" vaporized=""/>
    <tripinfo id="4235e4219n_45" depart="192.00" departLane="619523290#0_0" departPos="5.10" departSpeed="0.00" departDelay="0.00" arrival="401.00" arrivalLane="620377501#0_0" arrivalPos="20.24" arrivalSpeed="17.56" duration="209.00" routeLength="798.42" waitingTime="147.00" waitingCount="2" stopTime="0.00" timeLoss="164.23" rerouteNo="0" devices="tripinfo_4235e4219n_45" vType="type1" speedFactor="1.09" vaporized=""/>
    <tripinfo id="4235e4219n_55" depart="221.00" departLane="619523290#0_0" departPos="5.10" departSpeed="0.00" departDelay="2.00" arrival="402.00" arrivalLane="620377501#0_1" arrivalPos="20.24" arrivalSpeed="15.58" duration="181.00" routeLength="798.42" waitingTime="108.00" waitingCount="3" stopTime="0.00" timeLoss="132.32" rerouteNo="0" devices="tripinfo_4235e4219n_55" vType="type1" speedFactor="1.00" vaporized=""/>
    <tripinfo id="4235e4219n_63" depart="277.00" departLane="619523290#0_0" departPos="5.10" departSpeed="0.00" departDelay="0.00" arrival="403.00" arrivalLane="620377501#0_0" arrivalPos="20.24" arrivalSpeed="16.42" duration="126.00" routeLength="798.42" waitingTime="60.00" waitingCount="2" stopTime="0.00" timeLoss="76.83" rerouteNo="0" devices="tripinfo_4235e4219n_63" vType="type1" speedFactor="0.99" vaporized=""/>