<?xml version="1.0" encoding="UTF-8"?>

<!-- generated on 10/21/20 14:39:12 by Eclipse SUMO Version 1.5.0
<configuration xmlns:xsi="http://www.w3.org/2001/XMLSchema-instance" xsi:noNamespaceSchemaLocation="http://sumo.dlr.de/xsd/sumoConfiguration.xsd">

    <input>
        <net-file value="simulation/osm.net.xml"/>
        <route-files value="simulation/osm.rou.xml"/>
        <additional-files value="simulation/osm.det.xml"/>
    </input>

    <output>
        <summary-output value="output/summary.xml"/>
        <tripinfo-output value="output/tripinfoEDF.xml"/>
    </output>

    <time>
        <begin value="0"/>
    </time>

    <processing>
        <no-internal-links value="true"/>
    </processing>

    <report>
        <verbose value="true"/>
        <no-step-log value="true"/>
    </report>

    <traci_server>
        <remote-port value="61962"/>
    </traci_server>

</configuration>
-->

<tripinfos xmlns:xsi="http://www.w3.org/2001/XMLSchema-instance" xsi:noNamespaceSchemaLocation="http://sumo.dlr.de/xsd/tripinfo_file.xsd">
    <tripinfo id="nw4235_7" depart="2.00" departLane="-628341438#1_0" departPos="5.10" departSpeed="0.00" departDelay="0.00" arrival="26.00" arrivalLane="619523287#1_0" arrivalPos="83.27" arrivalSpeed="13.86" duration="24.00" routeLength="265.87" waitingTime="0.00" waitingCount="0" stopTime="0.00" timeLoss="4.26" rerouteNo="0" devices="tripinfo_nw4235_7" vType="type1" speedFactor="0.89" vaporized=""/>
    <tripinfo id="nw4235_12" depart="5.00" departLane="-628341438#1_0" departPos="5.10" departSpeed="0.00" departDelay="1.00" arrival="28.00" arrivalLane="619523287#1_0" arrivalPos="83.27" arrivalSpeed="17.04" duration="23.00" routeLength="265.87" waitingTime="0.00" waitingCount="0" stopTime="0.00" timeLoss="6.90" rerouteNo="0" devices="tripinfo_nw4235_12" vType="type1" speedFactor="1.05" vaporized=""/>
    <tripinfo id="se4235_0" depart="0.00" departLane="619523290#0_0" departPos="5.10" departSpeed="0.00" departDelay="0.00" arrival="29.00" arrivalLane="628341438#1_0" arrivalPos="36.44" arrivalSpeed="14.11" duration="29.00" routeLength="366.85" waitingTime="0.00" waitingCount="0" stopTime="0.00" timeLoss="6.64" rerouteNo="0" devices="tripinfo_se4235_0" vType="type1" speedFactor="1.06" vaporized=""/>
    <tripinfo id="nw4235_20" depart="8.00" departLane="-628341438#1_0" departPos="5.10" departSpeed="0.00" departDelay="3.00" arrival="32.00" arrivalLane="619523287#1_0" arrivalPos="83.27" arrivalSpeed="16.29" duration="24.00" routeLength="265.87" waitingTime="0.00" waitingCount="0" stopTime="0.00" timeLoss="6.73" rerouteNo="0" devices="tripinfo_nw4235_20" vType="type1" speedFactor="1.02" vaporized=""/>
    <tripinfo id="nw4235_46" depart="13.00" departLane="-628341438#1_0" departPos="5.10" departSpeed="0.00" departDelay="0.00" arrival="35.00" arrivalLane="619523287#1_0" arrivalPos="83.27" arrivalSpeed="15.45" duration="22.00" routeLength="265.87" waitingTime="0.00" waitingCount="0" stopTime="0.00" timeLoss="4.95" rerouteNo="0" devices="tripinfo_nw4235_46" vType="type1" speedFactor="1.00" vaporized=""/>
    <tripinfo id="nw4235_52" depart="16.00" departLane="-628341438#1_0" departPos="5.10" departSpeed="0.00" departDelay="1.00" arrival="38.00" arrivalLane="619523287#1_0" arrivalPos="83.27" arrivalSpeed="16.71" duration="22.00" routeLength="265.87" waitingTime="0.00" waitingCount="0" stopTime="0.00" timeLoss="5.11" rerouteNo="0" devices="tripinfo_nw4235_52" vType="type1" speedFactor="1.02" vaporized=""/>
    <tripinfo id="4220s4219n_18" depart="7.00" departLane="gneE10.441_0" departPos="5.10" departSpeed="0.00" departDelay="3.00" arrival="44.00" arrivalLane="620377501#0_0" arrivalPos="20.24" arrivalSpeed="15.33" duration="37.00" routeLength="243.00" waitingTime="7.00" waitingCount="2" stopTime="0.00" timeLoss="20.89" rerouteNo="0" devices="tripinfo_4220s4219n_18" vType="type1" speedFactor="0.94" vaporized=""/>
    <tripinfo id="4220s4219n_36" depart="9.00" departLane="gneE10.441_0" departPos="5.10" departSpeed="0.00" departDelay="0.00" arrival="44.00" arrivalLane="620377501#0_1" arrivalPos="20.24" arrivalSpeed="15.24" duration="35.00" routeLength="243.00" waitingTime="5.00" waitingCount="2" stopTime="0.00" timeLoss="19.55" rerouteNo="0" devices="tripinfo_4220s4219n_36" vType="type1" speedFactor="0.97" vaporized=""/>
    <tripinfo id="nw4235_66" depart="22.00" departLane="-628341438#1_0" departPos="5.10" departSpeed="0.00" departDelay="0.00" arrival="47.00" arrivalLane="619523287#1_0" arrivalPos="83.27" arrivalSpeed="14.15" duration="25.00" routeLength="265.87" waitingTime="0.00" waitingCount="0" stopTime="0.00" timeLoss="6.40" rerouteNo="0" devices="tripinfo_nw4235_66" vType="type1" speedFactor="0.91" vaporized=""/>
    <tripinfo id="4220s4219s_79" depart="30.00" departLane="gneE10.441_0" departPos="5.10" departSpeed="0.00" departDelay="1.00" arrival="52.00" arrivalLane="547625725_0" arrivalPos="73.62" arrivalSpeed="18.37" duration="22.00" routeLength="209.73" waitingTime="1.00" waitingCount="1" stopTime="0.00" timeLoss="10.82" rerouteNo="0" devices="tripinfo_4220s4219s_79" vType="type1" speedFactor="1.09" vaporized=""/>
    <tripinfo id="south4220_14" depart="4.00" departLane="gneE10.441_0" departPos="5.10" departSpeed="0.00" departDelay="0.00" arrival="53.00" arrivalLane="gneE41_0" arrivalPos="453.36" arrivalSpeed="12.56" duration="49.00" routeLength="476.04" waitingTime="4.00" waitingCount="1" stopTime="0.00" timeLoss="13.86" rerouteNo="0" devices="tripinfo_south4220_14" vType="type1" speedFactor="0.99" vaporized=""/>
    <tripinfo id="4220s4219n_81" depart="32.00" departLane="gneE10.441_0" departPos="5.10" departSpeed="0.00" departDelay="1.00" arrival="53.00" arrivalLane="620377501#0_0" arrivalPos="20.24" arrivalSpeed="16.12" duration="21.00" routeLength="243.00" waitingTime="0.00" waitingCount="0" stopTime="0.00" timeLoss="6.06" rerouteNo="0" devices="tripinfo_4220s4219n_81" vType="type1" speedFactor="1.00" vaporized=""/>
    <tripinfo id="south4220_54" depart="16.00" departLane="gneE10.441_0" departPos="5.10" departSpeed="0.00" departDelay="0.00" arrival="56.00" arrivalLane="gneE41_0" arrivalPos="453.36" arrivalSpeed="13.34" duration="40.00" routeLength="476.04" waitingTime="0.00" waitingCount="0" stopTime="0.00" timeLoss="5.00" rerouteNo="0" devices="tripinfo_south4220_54" vType="type1" speedFactor="1.00" vaporized=""/>
    <tripinfo id="4220s4219n_91" depart="35.00" departLane="gneE10.441_0" departPos="5.10" departSpeed="0.00" departDelay="0.00" arrival="57.00" arrivalLane="620377501#0_0" arrivalPos="20.24" arrivalSpeed="14.46" duration="22.00" routeLength="243.00" waitingTime="0.00" waitingCount="0" stopTime="0.00" timeLoss="5.36" rerouteNo="0" devices="tripinfo_4220s4219n_91" vType="type1" speedFactor="0.89" vaporized=""/>
    <tripinfo id="ne4221_4" depart="1.00" departLane="-620463733_0" departPos="5.10" departSpeed="0.00" departDelay="0.00" arrival="59.00" arrivalLane="28573015#6_0" arrivalPos="68.82" arrivalSpeed="17.10" duration="58.00" routeLength="684.84" waitingTime="6.00" waitingCount="1" stopTime="0.00" timeLoss="19.55" rerouteNo="0" devices="tripinfo_ne4221_4" vType="type1" speedFactor="1.03" vaporized=""/>
    <tripinfo id="nw4235_78" depart="29.00" departLane="-628341438#1_0" departPos="5.10" departSpeed="0.00" departDelay="0.00" arrival="60.00" arrivalLane="619523287#1_0" arrivalPos="83.27" arrivalSpeed="16.47" duration="31.00" routeLength="265.87" waitingTime="4.00" waitingCount="1" stopTime="0.00" timeLoss="14.00" rerouteNo="0" devices="tripinfo_nw4235_78" vType="type1" speedFactor="1.01" vaporized=""/>
    <tripinfo id="south4220_73" depart="26.00" departLane="gneE10.441_0" departPos="5.10" departSpeed="0.00" departDelay="0.00" arrival="64.00" arrivalLane="gneE41_0" arrivalPos="453.36" arrivalSpeed="14.39" duration="38.00" routeLength="476.04" waitingTime="0.00" waitingCount="0" stopTime="0.00" timeLoss="5.45" rerouteNo="0" devices="tripinfo_south4220_73" vType="type1" speedFactor="1.06" vaporized=""/>
    <tripinfo id="ne4221_57" depart="23.00" departLane="-620463733_0" departPos="5.10" departSpeed="0.00" departDelay="6.00" arrival="65.00" arrivalLane="28573015#6_0" arrivalPos="68.82" arrivalSpeed="18.85" duration="42.00" routeLength="684.84" waitingTime="0.00" waitingCount="0" stopTime="0.00" timeLoss="7.46" rerouteNo="0" devices="tripinfo_ne4221_57" vType="type1" speedFactor="1.14" vaporized=""/>
    <tripinfo id="south4219_27" depart="7.00" departLane="620377506_0" departPos="5.10" departSpeed="0.00" departDelay="0.00" arrival="66.00" arrivalLane="547625725_0" arrivalPos="73.62" arrivalSpeed="18.77" duration="59.00" routeLength="808.30" waitingTime="0.00" waitingCount="0" stopTime="0.00" timeLoss="8.94" rerouteNo="0" devices="tripinfo_south4219_27" vType="type1" speedFactor="0.95" vaporized=""/>
    <tripinfo id="south4219_2" depart="1.00" departLane="620377506_0" departPos="5.10" departSpeed="0.00" departDelay="0.00" arrival="68.00" arrivalLane="547625725_0" arrivalPos="73.62" arrivalSpeed="18.41" duration="67.00" routeLength="808.30" waitingTime="6.00" waitingCount="1" stopTime="0.00" timeLoss="19.66" rerouteNo="0" devices="tripinfo_south4219_2" vType="type1" speedFactor="1.01" vaporized=""/>
    <tripinfo id="north4219_13" depart="4.00" departLane="620377515_0" departPos="5.10" departSpeed="0.00" departDelay="0.00" arrival="69.00" arrivalLane="620377501#0_0" arrivalPos="20.24" arrivalSpeed="17.87" duration="65.00" routeLength="923.62" waitingTime="12.00" waitingCount="1" stopTime="0.00" timeLoss="25.73" rerouteNo="0" devices="tripinfo_north4219_13" vType="type1" speedFactor="1.12" vaporized=""/>
    <tripinfo id="north4219_1" depart="0.00" departLane="620377515_0" departPos="5.10" departSpeed="0.00" departDelay="0.00" arrival="71.00" arrivalLane="620377501#0_1" arrivalPos="20.24" arrivalSpeed="14.92" duration="71.00" routeLength="923.62" waitingTime="10.00" waitingCount="1" stopTime="0.00" timeLoss="23.44" rerouteNo="0" devices="tripinfo_north4219_1" vType="type1" speedFactor="0.94" vaporized=""/>
    <tripinfo id="north4219_33" depart="9.00" departLane="620377515_0" departPos="5.10" departSpeed="0.00" departDelay="0.00" arrival="72.00" arrivalLane="620377501#0_1" arrivalPos="20.24" arrivalSpeed="17.11" duration="63.00" routeLength="923.62" waitingTime="8.00" waitingCount="1" stopTime="0.00" timeLoss="25.26" rerouteNo="0" devices="tripinfo_north4219_33" vType="type1" speedFactor="1.17" vaporized=""/>
    <tripinfo id="north4219_47" depart="15.00" departLane="620377515_0" departPos="5.10" departSpeed="0.00" departDelay="2.00" arrival="72.00" arrivalLane="620377501#0_2" arrivalPos="20.24" arrivalSpeed="14.96" duration="57.00" routeLength="923.62" waitingTime="0.00" waitingCount="0" stopTime="0.00" timeLoss="7.50" rerouteNo="0" devices="tripinfo_north4219_47" vType="type1" speedFactor="0.90" vaporized=""/>
    <tripinfo id="4220s4235w_76" depart="29.00" departLane="gneE10.441_0" departPos="5.10" departSpeed="0.00" departDelay="3.00" arrival="76.00" arrivalLane="619523287#1_1" arrivalPos="83.27" arrivalSpeed="16.23" duration="47.00" routeLength="513.12" waitingTime="6.00" waitingCount="1" stopTime="0.00" timeLoss="16.89" rerouteNo="0" devices="tripinfo_4220s4235w_76" vType="type1" speedFactor="1.03" vaporized=""/>
    <tripinfo id="4220s4235w_71" depart="24.00" departLane="gneE10.441_0" departPos="5.10" departSpeed="0.00" departDelay="0.00" arrival="77.00" arrivalLane="619523287#1_0" arrivalPos="83.27" arrivalSpeed="15.14" duration="53.00" routeLength="513.12" waitingTime="10.00" waitingCount="1" stopTime="0.00" timeLoss="20.93" rerouteNo="0" devices="tripinfo_4220s4235w_71" vType="type1" speedFactor="0.97" vaporized=""/>
    <tripinfo id="north4221_28" depart="10.00" departLane="-620463733_0" departPos="5.10" departSpeed="0.00" departDelay="3.00" arrival="78.00" arrivalLane="28594060#4_0" arrivalPos="123.22" arrivalSpeed="17.94" duration="68.00" routeLength="885.44" waitingTime="7.00" waitingCount="1" stopTime="0.00" timeLoss="22.81" rerouteNo="0" devices="tripinfo_north4221_28" vType="type1" speedFactor="1.13" vaporized=""/>
    <tripinfo id="4219n4235w_43" depart="12.00" departLane="620377515_0" departPos="5.10" departSpeed="0.00" departDelay="2.00" arrival="79.00" arrivalLane="619523287#1_0" arrivalPos="83.27" arrivalSpeed="16.84" duration="67.00" routeLength="1174.94" waitingTime="0.00" waitingCount="0" stopTime="0.00" timeLoss="9.53" rerouteNo="0" devices="tripinfo_4219n4235w_43" vType="type1" speedFactor="1.04" vaporized=""/>
    <tripinfo id="4220n4219s_62" depart="20.00" departLane="gneE47_0" departPos="5.10" departSpeed="0.00" departDelay="0.00" arrival="80.00" arrivalLane="547625725_0" arrivalPos="73.62" arrivalSpeed="20.43" duration="60.00" routeLength="640.36" waitingTime="4.00" waitingCount="1" stopTime="0.00" timeLoss="17.41" rerouteNo="0" devices="tripinfo_4220n4219s_62" vType="type1" speedFactor="1.02" vaporized=""/>
    <tripinfo id="north4221_53" depart="17.00" departLane="-620463733_0" departPos="5.10" departSpeed="0.00" departDelay="2.00" arrival="81.00" arrivalLane="28594060#4_0" arrivalPos="123.22" arrivalSpeed="17.69" duration="64.00" routeLength="885.44" waitingTime="2.00" waitingCount="1" stopTime="0.00" timeLoss="16.82" rerouteNo="0" devices="tripinfo_north4221_53" vType="type1" speedFactor="1.10" vaporized=""/>
    <tripinfo id="se4235_44" depart="38.00" departLane="619523290#0_0" departPos="5.10" departSpeed="0.00" departDelay="26.00" arrival="82.00" arrivalLane="628341438#1_0" arrivalPos="36.44" arrivalSpeed="14.26" duration="44.00" routeLength="366.85" waitingTime="12.00" waitingCount="1" stopTime="0.00" timeLoss="21.32" rerouteNo="0" devices="tripinfo_se4235_44" vType="type1" speedFactor="1.04" vaporized=""/>
    <tripinfo id="4235e4219n_11" depart="7.00" departLane="619523290#0_0" departPos="5.10" departSpeed="0.00" departDelay="4.00" arrival="83.00" arrivalLane="620377501#0_0" arrivalPos="20.24" arrivalSpeed="15.85" duration="76.00" routeLength="724.98" waitingTime="15.00" waitingCount="1" stopTime="0.00" timeLoss="33.35" rerouteNo="0" devices="tripinfo_4235e4219n_11" vType="type1" speedFactor="1.03" vaporized=""/>
    <tripinfo id="4235e4219n_5" depart="1.00" departLane="619523290#0_0" departPos="5.10" departSpeed="0.00" departDelay="0.00" arrival="85.00" arrivalLane="620377501#0_0" arrivalPos="20.24" arrivalSpeed="13.30" duration="84.00" routeLength="724.98" waitingTime="19.00" waitingCount="1" stopTime="0.00" timeLoss="30.81" rerouteNo="0" devices="tripinfo_4235e4219n_5" vType="type1" speedFactor="0.83" vaporized=""/>
    <tripinfo id="north4221_8" depart="4.00" departLane="-620463733_0" departPos="5.10" departSpeed="0.00" departDelay="2.00" arrival="85.00" arrivalLane="28594060#4_0" arrivalPos="123.22" arrivalSpeed="14.38" duration="81.00" routeLength="885.44" waitingTime="10.00" waitingCount="1" stopTime="0.00" timeLoss="25.62" rerouteNo="0" devices="tripinfo_north4221_8" vType="type1" speedFactor="0.94" vaporized=""/>
    <tripinfo id="4235e4219n_15" depart="10.00" departLane="619523290#0_0" departPos="5.10" departSpeed="0.00" departDelay="6.00" arrival="85.00" arrivalLane="620377501#0_1" arrivalPos="20.24" arrivalSpeed="15.30" duration="75.00" routeLength="724.98" waitingTime="13.00" waitingCount="1" stopTime="0.00" timeLoss="27.88" rerouteNo="0" devices="tripinfo_4235e4219n_15" vType="type1" speedFactor="0.93" vaporized=""/>
    <tripinfo id="se4235_49" depart="45.00" departLane="619523290#0_0" departPos="5.10" departSpeed="0.00" departDelay="31.00" arrival="85.00" arrivalLane="628341438#1_0" arrivalPos="36.44" arrivalSpeed="10.60" duration="40.00" routeLength="366.85" waitingTime="1.00" waitingCount="1" stopTime="0.00" timeLoss="12.61" rerouteNo="0" devices="tripinfo_se4235_49" vType="type1" speedFactor="0.85" vaporized=""/>
    <tripinfo id="north4221_55" depart="20.00" departLane="-620463733_0" departPos="5.10" departSpeed="0.00" departDelay="4.00" arrival="85.00" arrivalLane="28594060#4_1" arrivalPos="123.22" arrivalSpeed="15.65" duration="65.00" routeLength="885.44" waitingTime="0.00" waitingCount="0" stopTime="0.00" timeLoss="13.15" rerouteNo="0" devices="tripinfo_north4221_55" vType="type1" speedFactor="1.00" vaporized=""/>
    <tripinfo id="4235e4219n_9" depart="4.00" departLane="619523290#0_0" departPos="5.10" departSpeed="0.00" departDelay="2.00" arrival="87.00" arrivalLane="620377501#0_0" arrivalPos="20.24" arrivalSpeed="13.55" duration="83.00" routeLength="724.98" waitingTime="17.00" waitingCount="1" stopTime="0.00" timeLoss="31.35" rerouteNo="0" devices="tripinfo_4235e4219n_9" vType="type1" speedFactor="0.86" vaporized=""/>
    <tripinfo id="north4221_63" depart="26.00" departLane="-620463733_0" departPos="5.10" departSpeed="0.00" departDelay="5.00" arrival="87.00" arrivalLane="28594060#4_0" arrivalPos="123.22" arrivalSpeed="15.21" duration="61.00" routeLength="885.44" waitingTime="0.00" waitingCount="0" stopTime="0.00" timeLoss="8.36" rerouteNo="0" devices="tripinfo_north4221_63" vType="type1" speedFactor="0.99" vaporized=""/>
    <tripinfo id="4235n4219n_72" depart="25.00" departLane="-628341438#1_0" departPos="5.10" departSpeed="0.00" departDelay="0.00" arrival="88.00" arrivalLane="620377501#0_1" arrivalPos="20.24" arrivalSpeed="15.49" duration="63.00" routeLength="473.89" waitingTime="15.00" waitingCount="2" stopTime="0.00" timeLoss="31.50" rerouteNo="0" devices="tripinfo_4235n4219n_72" vType="type1" speedFactor="0.94" vaporized=""/>
    <tripinfo id="se4235_77" depart="63.00" departLane="619523290#0_0" departPos="5.10" departSpeed="0.00" departDelay="35.00" arrival="92.00" arrivalLane="628341438#1_0" arrivalPos="36.44" arrivalSpeed="13.36" duration="29.00" routeLength="366.85" waitingTime="0.00" waitingCount="0" stopTime="0.00" timeLoss="5.69" rerouteNo="0" devices="tripinfo_se4235_77" vType="type1" speedFactor="0.98" vaporized=""/>
    <tripinfo id="south4221_10" depart="7.00" departLane="-28594060#4_0" departPos="5.10" departSpeed="0.00" departDelay="4.00" arrival="94.00" arrivalLane="620463733_0" arrivalPos="133.76" arrivalSpeed="17.80" duration="87.00" routeLength="875.34" waitingTime="20.00" waitingCount="1" stopTime="0.00" timeLoss="37.92" rerouteNo="0" devices="tripinfo_south4221_10" vType="type1" speedFactor="1.09" vaporized=""/>
    <tripinfo id="south4221_3" depart="1.00" departLane="-28594060#4_0" departPos="5.10" departSpeed="0.00" departDelay="0.00" arrival="97.00" arrivalLane="620463733_0" arrivalPos="133.76" arrivalSpeed="16.91" duration="96.00" routeLength="875.34" waitingTime="32.00" waitingCount="1" stopTime="0.00" timeLoss="46.73" rerouteNo="0" devices="tripinfo_south4221_3" vType="type1" speedFactor="1.08" vaporized=""/>
    <tripinfo id="south4221_38" depart="19.00" departLane="-28594060#4_0" departPos="5.10" departSpeed="0.00" departDelay="9.00" arrival="98.00" arrivalLane="620463733_0" arrivalPos="133.76" arrivalSpeed="17.67" duration="79.00" routeLength="875.34" waitingTime="13.00" waitingCount="2" stopTime="0.00" timeLoss="31.31" rerouteNo="0" devices="tripinfo_south4221_38" vType="type1" speedFactor="1.10" vaporized=""/>
    <tripinfo id="4221n4219n_51" depart="14.00" departLane="-620463733_0" departPos="5.10" departSpeed="0.00" departDelay="0.00" arrival="98.00" arrivalLane="620377501#0_0" arrivalPos="20.24" arrivalSpeed="18.27" duration="84.00" routeLength="633.24" waitingTime="24.00" waitingCount="2" stopTime="0.00" timeLoss="50.66" rerouteNo="0" devices="tripinfo_4221n4219n_51" vType="type1" speedFactor="1.17" vaporized=""/>
    <tripinfo id="4221n4219n_22" depart="7.00" departLane="-620463733_0" departPos="5.10" departSpeed="0.00" departDelay="2.00" arrival="99.00" arrivalLane="620377501#0_0" arrivalPos="20.24" arrivalSpeed="15.16" duration="92.00" routeLength="633.24" waitingTime="31.00" waitingCount="2" stopTime="0.00" timeLoss="52.41" rerouteNo="0" devices="tripinfo_4221n4219n_22" vType="type1" speedFactor="0.98" vaporized=""/>
    <tripinfo id="4220n4219n_37" depart="9.00" departLane="gneE47_0" departPos="5.10" departSpeed="0.00" departDelay="0.00" arrival="99.00" arrivalLane="620377501#0_1" arrivalPos="20.24" arrivalSpeed="19.32" duration="90.00" routeLength="673.63" waitingTime="21.00" waitingCount="2" stopTime="0.00" timeLoss="50.99" rerouteNo="0" devices="tripinfo_4220n4219n_37" vType="type1" speedFactor="1.18" vaporized=""/>
    <tripinfo id="4220n4219n_26" depart="6.00" departLane="gneE47_0" departPos="5.10" departSpeed="0.00" departDelay="0.00" arrival="100.00" arrivalLane="620377501#0_0" arrivalPos="20.24" arrivalSpeed="14.99" duration="94.00" routeLength="673.63" waitingTime="27.00" waitingCount="2" stopTime="0.00" timeLoss="43.97" rerouteNo="0" devices="tripinfo_4220n4219n_26" vType="type1" speedFactor="0.92" vaporized=""/>
    <tripinfo id="south4221_24" depart="13.00" departLane="-28594060#4_0" departPos="5.10" departSpeed="0.00" departDelay="7.00" arrival="105.00" arrivalLane="620463733_0" arrivalPos="133.76" arrivalSpeed="13.75" duration="92.00" routeLength="875.34" waitingTime="10.00" waitingCount="1" stopTime="0.00" timeLoss="27.84" rerouteNo="0" devices="tripinfo_south4221_24" vType="type1" speedFactor="0.83" vaporized=""/>
    <tripinfo id="south4221_29" depart="16.00" departLane="-28594060#4_0" departPos="5.10" departSpeed="0.00" departDelay="9.00" arrival="107.00" arrivalLane="620463733_0" arrivalPos="133.76" arrivalSpeed="14.48" duration="91.00" routeLength="875.34" waitingTime="8.00" waitingCount="1" stopTime="0.00" timeLoss="33.74" rerouteNo="0" devices="tripinfo_south4221_29" vType="type1" speedFactor="0.93" vaporized=""/>
    <tripinfo id="south4219_56" depart="17.00" departLane="620377506_0" departPos="5.10" departSpeed="0.00" departDelay="0.00" arrival="110.00" arrivalLane="547625725_0" arrivalPos="73.62" arrivalSpeed="18.87" duration="93.00" routeLength="808.30" waitingTime="27.00" waitingCount="1" stopTime="0.00" timeLoss="39.59" rerouteNo="0" devices="tripinfo_south4219_56" vType="type1" speedFactor="0.90" vaporized=""/>
    <tripinfo id="south4219_70" depart="24.00" departLane="620377506_0" departPos="5.10" departSpeed="0.00" departDelay="0.00" arrival="110.00" arrivalLane="547625725_1" arrivalPos="73.62" arrivalSpeed="17.56" duration="86.00" routeLength="808.30" waitingTime="23.00" waitingCount="1" stopTime="0.00" timeLoss="39.51" rerouteNo="0" devices="tripinfo_south4219_70" vType="type1" speedFactor="1.02" vaporized=""/>
    <tripinfo id="4235e4219n_21" depart="16.00" departLane="619523290#0_0" departPos="5.10" departSpeed="0.00" departDelay="11.00" arrival="112.00" arrivalLane="620377501#0_0" arrivalPos="20.24" arrivalSpeed="16.22" duration="96.00" routeLength="724.98" waitingTime="36.00" waitingCount="2" stopTime="0.00" timeLoss="52.64" rerouteNo="0" devices="tripinfo_4235e4219n_21" vType="type1" speedFactor="1.01" vaporized=""/>
    <tripinfo id="4235e4219n_31" depart="22.00" departLane="619523290#0_0" departPos="5.10" departSpeed="0.00" departDelay="14.00" arrival="112.00" arrivalLane="620377501#0_1" arrivalPos="20.24" arrivalSpeed="19.08" duration="90.00" routeLength="724.98" waitingTime="26.00" waitingCount="2" stopTime="0.00" timeLoss="51.33" rerouteNo="0" devices="tripinfo_4235e4219n_31" vType="type1" speedFactor="1.15" vaporized=""/>
    <tripinfo id="south4219_85" depart="33.00" departLane="620377506_0" departPos="5.10" departSpeed="0.00" departDelay="0.00" arrival="112.00" arrivalLane="547625725_0" arrivalPos="73.62" arrivalSpeed="18.86" duration="79.00" routeLength="808.30" waitingTime="17.00" waitingCount="1" stopTime="0.00" timeLoss="29.69" rerouteNo="0" devices="tripinfo_south4219_85" vType="type1" speedFactor="0.98" vaporized=""/>
    <tripinfo id="south4219_97" depart="37.00" departLane="620377506_0" departPos="5.10" departSpeed="0.00" departDelay="0.00" arrival="112.00" arrivalLane="547625725_1" arrivalPos="73.62" arrivalSpeed="19.28" duration="75.00" routeLength="808.30" waitingTime="9.00" waitingCount="1" stopTime="0.00" timeLoss="21.94" rerouteNo="0" devices="tripinfo_south4219_97" vType="type1" speedFactor="0.91" vaporized=""/>
    <tripinfo id="south4220_107" depart="41.00" departLane="gneE10.441_0" departPos="5.10" departSpeed="0.00" departDelay="0.00" arrival="112.00" arrivalLane="gneE41_0" arrivalPos="453.36" arrivalSpeed="13.29" duration="71.00" routeLength="476.04" waitingTime="28.00" waitingCount="1" stopTime="0.00" timeLoss="37.03" rerouteNo="0" devices="tripinfo_south4220_107" vType="type1" speedFactor="1.03" vaporized=""/>
    <tripinfo id="south4220_114" depart="44.00" departLane="gneE10.441_0" departPos="5.10" departSpeed="0.00" departDelay="2.00" arrival="113.00" arrivalLane="gneE41_0" arrivalPos="453.36" arrivalSpeed="14.47" duration="69.00" routeLength="476.04" waitingTime="27.00" waitingCount="1" stopTime="0.00" timeLoss="37.56" rerouteNo="0" devices="tripinfo_south4220_114" vType="type1" speedFactor="1.10" vaporized=""/>
    <tripinfo id="south4219_127" depart="46.00" departLane="620377506_0" departPos="5.10" departSpeed="0.00" departDelay="0.00" arrival="113.00" arrivalLane="547625725_0" arrivalPos="73.62" arrivalSpeed="17.34" duration="67.00" routeLength="808.30" waitingTime="0.00" waitingCount="0" stopTime="0.00" timeLoss="9.05" rerouteNo="0" devices="tripinfo_south4219_127" vType="type1" speedFactor="0.82" vaporized=""/>
    <tripinfo id="4235e4219n_34" depart="28.00" departLane="619523290#0_0" departPos="5.10" departSpeed="0.00" departDelay="19.00" arrival="114.00" arrivalLane="620377501#0_0" arrivalPos="20.24" arrivalSpeed="15.64" duration="86.00" routeLength="724.98" waitingTime="21.00" waitingCount="2" stopTime="0.00" timeLoss="41.70" rerouteNo="0" devices="tripinfo_4235e4219n_34" vType="type1" speedFactor="0.99" vaporized=""/>
    <tripinfo id="4235e4219n_58" depart="49.00" departLane="619523290#0_0" departPos="5.10" departSpeed="0.00" departDelay="31.00" arrival="114.00" arrivalLane="620377501#0_1" arrivalPos="20.24" arrivalSpeed="17.04" duration="65.00" routeLength="724.98" waitingTime="7.00" waitingCount="1" stopTime="0.00" timeLoss="21.52" rerouteNo="0" devices="tripinfo_4235e4219n_58" vType="type1" speedFactor="1.02" vaporized=""/>
    <tripinfo id="4219s4235w_42" depart="14.00" departLane="620377506_0" departPos="5.10" departSpeed="0.00" departDelay="4.00" arrival="115.00" arrivalLane="619523287#1_0" arrivalPos="83.27" arrivalSpeed="17.72" duration="101.00" routeLength="1117.47" waitingTime="19.00" waitingCount="2" stopTime="0.00" timeLoss="38.70" rerouteNo="0" devices="tripinfo_4219s4235w_42" vType="type1" speedFactor="1.09" vaporized=""/>
    <tripinfo id="south4220_119" depart="47.00" departLane="gneE10.441_0" departPos="5.10" departSpeed="0.00" departDelay="4.00" arrival="115.00" arrivalLane="gneE41_0" arrivalPos="453.36" arrivalSpeed="13.88" duration="68.00" routeLength="476.04" waitingTime="25.00" waitingCount="1" stopTime="0.00" timeLoss="35.65" rerouteNo="0" devices="tripinfo_south4220_119" vType="type1" speedFactor="1.07" vaporized=""/>
    <tripinfo id="4219s4235w_30" depart="10.00" departLane="620377506_0" departPos="5.10" departSpeed="0.00" departDelay="3.00" arrival="116.00" arrivalLane="619523287#1_0" arrivalPos="83.27" arrivalSpeed="17.50" duration="106.00" routeLength="1117.47" waitingTime="26.00" waitingCount="2" stopTime="0.00" timeLoss="48.62" rerouteNo="0" devices="tripinfo_4219s4235w_30" vType="type1" speedFactor="1.18" vaporized=""/>
    <tripinfo id="4235e4219n_64" depart="58.00" departLane="619523290#0_0" departPos="5.10" departSpeed="0.00" departDelay="37.00" arrival="116.00" arrivalLane="620377501#0_1" arrivalPos="20.24" arrivalSpeed="15.33" duration="58.00" routeLength="724.98" waitingTime="0.00" waitingCount="0" stopTime="0.00" timeLoss="10.72" rerouteNo="0" devices="tripinfo_4235e4219n_64" vType="type1" speedFactor="0.94" vaporized=""/>
    <tripinfo id="4235e4219n_75" depart="61.00" departLane="619523290#0_0" departPos="5.10" departSpeed="0.00" departDelay="35.00" arrival="116.00" arrivalLane="620377501#0_0" arrivalPos="20.24" arrivalSpeed="15.24" duration="55.00" routeLength="724.98" waitingTime="0.00" waitingCount="0" stopTime="0.00" timeLoss="9.92" rerouteNo="0" devices="tripinfo_4235e4219n_75" vType="type1" speedFactor="0.98" vaporized=""/>
    <tripinfo id="4219s4221n_16" depart="4.00" departLane="620377506_0" departPos="5.10" departSpeed="0.00" departDelay="0.00" arrival="117.00" arrivalLane="28594060#4_0" arrivalPos="123.22" arrivalSpeed="14.55" duration="113.00" routeLength="1479.01" waitingTime="0.00" waitingCount="0" stopTime="0.00" timeLoss="11.36" rerouteNo="0" devices="tripinfo_4219s4221n_16" vType="type1" speedFactor="0.88" vaporized=""/>
    <tripinfo id="4219s4235w_60" depart="20.00" departLane="620377506_0" departPos="5.10" departSpeed="0.00" departDelay="1.00" arrival="118.00" arrivalLane="619523287#1_0" arrivalPos="83.27" arrivalSpeed="17.37" duration="98.00" routeLength="1117.47" waitingTime="13.00" waitingCount="2" stopTime="0.00" timeLoss="35.12" rerouteNo="0" devices="tripinfo_4219s4235w_60" vType="type1" speedFactor="1.08" vaporized=""/>
    <tripinfo id="se4235_87" depart="76.00" departLane="619523290#0_0" departPos="5.10" departSpeed="0.00" departDelay="42.00" arrival="123.00" arrivalLane="628341438#1_0" arrivalPos="36.44" arrivalSpeed="13.73" duration="47.00" routeLength="366.85" waitingTime="13.00" waitingCount="1" stopTime="0.00" timeLoss="24.34" rerouteNo="0" devices="tripinfo_se4235_87" vType="type1" speedFactor="1.04" vaporized=""/>
    <tripinfo id="se4235_95" depart="83.00" departLane="619523290#0_0" departPos="5.10" departSpeed="0.00" departDelay="46.00" arrival="125.00" arrivalLane="628341438#1_0" arrivalPos="36.44" arrivalSpeed="14.22" duration="42.00" routeLength="366.85" waitingTime="8.00" waitingCount="1" stopTime="0.00" timeLoss="19.51" rerouteNo="0" devices="tripinfo_se4235_95" vType="type1" speedFactor="1.06" vaporized=""/>