<?xml version="1.0" encoding="UTF-8"?>

<!-- generated on 07/10/20 17:18:57 by Eclipse SUMO GUI Version 1.5.0
<configuration xmlns:xsi="http://www.w3.org/2001/XMLSchema-instance" xsi:noNamespaceSchemaLocation="http://sumo.dlr.de/xsd/sumoConfiguration.xsd">

    <input>
        <net-file value="data/osm.net.xml"/>
        <route-files value="data/osm.rou.xml"/>
        <additional-files value="data/osm.det.xml"/>
    </input>

    <output>
        <tripinfo-output value="tripinfoEDF.xml"/>
    </output>

    <time>
        <begin value="0"/>
    </time>

    <processing>
        <no-internal-links value="true"/>
    </processing>

    <report>
        <verbose value="true"/>
        <no-step-log value="true"/>
    </report>

    <traci_server>
        <remote-port value="54800"/>
    </traci_server>

</configuration>
-->

<tripinfos xmlns:xsi="http://www.w3.org/2001/XMLSchema-instance" xsi:noNamespaceSchemaLocation="http://sumo.dlr.de/xsd/tripinfo_file.xsd">
    <tripinfo id="nw4235_0" depart="0.00" departLane="-628341438#1_0" departPos="5.10" departSpeed="0.00" departDelay="0.00" arrival="19.00" arrivalLane="619523287#1_0" arrivalPos="83.27" arrivalSpeed="29.93" duration="19.00" routeLength="265.87" waitingTime="0.00" waitingCount="0" stopTime="0.00" timeLoss="14.08" rerouteNo="0" devices="tripinfo_nw4235_0" vType="type1" speedFactor="1.06" vaporized=""/>
    <tripinfo id="south4219_18" depart="8.00" departLane="620377506_0" departPos="5.10" departSpeed="0.00" departDelay="0.00" arrival="21.00" arrivalLane="547625725_0" arrivalPos="73.62" arrivalSpeed="26.04" duration="13.00" routeLength="195.73" waitingTime="0.00" waitingCount="0" stopTime="0.00" timeLoss="9.46" rerouteNo="0" devices="tripinfo_south4219_18" vType="type1" speedFactor="0.94" vaporized=""/>
    <tripinfo id="nw4235_10" depart="4.00" departLane="-628341438#1_0" departPos="5.10" departSpeed="0.00" departDelay="0.00" arrival="24.00" arrivalLane="619523287#1_0" arrivalPos="83.27" arrivalSpeed="29.92" duration="20.00" routeLength="265.87" waitingTime="0.00" waitingCount="0" stopTime="0.00" timeLoss="14.66" rerouteNo="0" devices="tripinfo_nw4235_10" vType="type1" speedFactor="1.09" vaporized=""/>
    <tripinfo id="north4219_6" depart="2.00" departLane="620377515_0" departPos="5.10" departSpeed="0.00" departDelay="0.00" arrival="33.00" arrivalLane="620377501#0_1" arrivalPos="20.24" arrivalSpeed="19.94" duration="31.00" routeLength="207.90" waitingTime="7.00" waitingCount="1" stopTime="0.00" timeLoss="27.06" rerouteNo="0" devices="tripinfo_north4219_6" vType="type1" speedFactor="1.05" vaporized=""/>
    <tripinfo id="north4219_8" depart="5.00" departLane="620377515_0" departPos="5.10" departSpeed="0.00" departDelay="2.00" arrival="33.00" arrivalLane="620377501#0_2" arrivalPos="20.24" arrivalSpeed="21.81" duration="28.00" routeLength="207.90" waitingTime="4.00" waitingCount="1" stopTime="0.00" timeLoss="23.97" rerouteNo="0" devices="tripinfo_north4219_8" vType="type1" speedFactor="0.94" vaporized=""/>
    <tripinfo id="south4221_9" depart="3.00" departLane="-28594060#4_0" departPos="5.10" departSpeed="0.00" departDelay="0.00" arrival="33.00" arrivalLane="620463733_0" arrivalPos="133.76" arrivalSpeed="51.37" duration="30.00" routeLength="875.34" waitingTime="0.00" waitingCount="0" stopTime="0.00" timeLoss="12.46" rerouteNo="0" devices="tripinfo_south4221_9" vType="type1" speedFactor="0.86" vaporized=""/>
    <tripinfo id="south4219_46" depart="22.00" departLane="620377506_0" departPos="5.10" departSpeed="0.00" departDelay="0.00" arrival="37.00" arrivalLane="547625725_0" arrivalPos="73.62" arrivalSpeed="26.63" duration="15.00" routeLength="195.73" waitingTime="0.00" waitingCount="0" stopTime="0.00" timeLoss="11.16" rerouteNo="0" devices="tripinfo_south4219_46" vType="type1" speedFactor="1.00" vaporized=""/>
    <tripinfo id="nw4235_41" depart="21.00" departLane="-628341438#1_0" departPos="5.10" departSpeed="0.00" departDelay="0.00" arrival="40.00" arrivalLane="619523287#1_0" arrivalPos="83.27" arrivalSpeed="29.61" duration="19.00" routeLength="265.87" waitingTime="0.00" waitingCount="0" stopTime="0.00" timeLoss="13.88" rerouteNo="0" devices="tripinfo_nw4235_41" vType="type1" speedFactor="0.96" vaporized=""/>
    <tripinfo id="nw4235_52" depart="24.00" departLane="-628341438#1_0" departPos="5.10" departSpeed="0.00" departDelay="0.00" arrival="43.00" arrivalLane="619523287#1_0" arrivalPos="83.27" arrivalSpeed="28.43" duration="19.00" routeLength="265.87" waitingTime="0.00" waitingCount="0" stopTime="0.00" timeLoss="14.00" rerouteNo="0" devices="tripinfo_nw4235_52" vType="type1" speedFactor="1.02" vaporized=""/>
    <tripinfo id="south4219_74" depart="33.00" departLane="620377506_0" departPos="5.10" departSpeed="0.00" departDelay="0.00" arrival="47.00" arrivalLane="547625725_0" arrivalPos="73.62" arrivalSpeed="25.94" duration="14.00" routeLength="195.73" waitingTime="0.00" waitingCount="0" stopTime="0.00" timeLoss="10.35" rerouteNo="0" devices="tripinfo_south4219_74" vType="type1" speedFactor="0.96" vaporized=""/>
    <tripinfo id="nw4235_65" depart="28.00" departLane="-628341438#1_0" departPos="5.10" departSpeed="0.00" departDelay="0.00" arrival="48.00" arrivalLane="619523287#1_0" arrivalPos="83.27" arrivalSpeed="29.81" duration="20.00" routeLength="265.87" waitingTime="0.00" waitingCount="0" stopTime="0.00" timeLoss="14.25" rerouteNo="0" devices="tripinfo_nw4235_65" vType="type1" speedFactor="0.88" vaporized=""/>
    <tripinfo id="north4219_24" depart="13.00" departLane="620377515_0" departPos="5.10" departSpeed="0.00" departDelay="0.00" arrival="49.00" arrivalLane="620377501#0_2" arrivalPos="20.24" arrivalSpeed="20.15" duration="36.00" routeLength="207.90" waitingTime="11.00" waitingCount="1" stopTime="0.00" timeLoss="31.83" rerouteNo="0" devices="tripinfo_north4219_24" vType="type1" speedFactor="0.83" vaporized=""/>
    <tripinfo id="4219s4221e_20" depart="10.00" departLane="620377506_0" departPos="5.10" departSpeed="0.00" departDelay="1.00" arrival="50.00" arrivalLane="28573015#6_0" arrivalPos="68.82" arrivalSpeed="41.97" duration="40.00" routeLength="682.15" waitingTime="0.00" waitingCount="0" stopTime="0.00" timeLoss="26.96" rerouteNo="0" devices="tripinfo_4219s4221e_20" vType="type1" speedFactor="1.02" vaporized=""/>
    <tripinfo id="north4219_28" depart="16.00" departLane="620377515_0" departPos="5.10" departSpeed="0.00" departDelay="1.00" arrival="50.00" arrivalLane="620377501#0_1" arrivalPos="20.24" arrivalSpeed="19.72" duration="34.00" routeLength="207.90" waitingTime="6.00" waitingCount="2" stopTime="0.00" timeLoss="29.91" rerouteNo="0" devices="tripinfo_north4219_28" vType="type1" speedFactor="1.13" vaporized=""/>
    <tripinfo id="se4235_3" depart="6.00" departLane="619523290#0_0" departPos="5.10" departSpeed="0.00" departDelay="5.00" arrival="53.00" arrivalLane="628341438#1_0" arrivalPos="36.44" arrivalSpeed="15.50" duration="47.00" routeLength="366.85" waitingTime="18.00" waitingCount="1" stopTime="0.00" timeLoss="40.33" rerouteNo="0" devices="tripinfo_se4235_3" vType="type1" speedFactor="1.08" vaporized=""/>
    <tripinfo id="south4219_76" depart="36.00" departLane="620377506_0" departPos="5.10" departSpeed="0.00" departDelay="1.00" arrival="54.00" arrivalLane="547625725_0" arrivalPos="73.62" arrivalSpeed="22.73" duration="18.00" routeLength="195.73" waitingTime="0.00" waitingCount="0" stopTime="0.00" timeLoss="14.08" rerouteNo="0" devices="tripinfo_south4219_76" vType="type1" speedFactor="1.03" vaporized=""/>
    <tripinfo id="south4219_84" depart="39.00" departLane="620377506_0" departPos="5.10" departSpeed="0.00" departDelay="1.00" arrival="55.00" arrivalLane="547625725_0" arrivalPos="73.62" arrivalSpeed="22.47" duration="16.00" routeLength="195.73" waitingTime="0.00" waitingCount="0" stopTime="0.00" timeLoss="12.30" rerouteNo="0" devices="tripinfo_south4219_84" vType="type1" speedFactor="1.15" vaporized=""/>
    <tripinfo id="se4235_5" depart="10.00" departLane="619523290#0_0" departPos="5.10" departSpeed="0.00" departDelay="8.00" arrival="56.00" arrivalLane="628341438#1_0" arrivalPos="36.44" arrivalSpeed="17.22" duration="46.00" routeLength="366.85" waitingTime="15.00" waitingCount="1" stopTime="0.00" timeLoss="38.16" rerouteNo="0" devices="tripinfo_se4235_5" vType="type1" speedFactor="0.83" vaporized=""/>
    <tripinfo id="4235n4219n_27" depart="13.00" departLane="-628341438#1_0" departPos="5.10" departSpeed="0.00" departDelay="0.00" arrival="57.00" arrivalLane="620377501#0_0" arrivalPos="20.24" arrivalSpeed="22.23" duration="44.00" routeLength="473.89" waitingTime="2.00" waitingCount="2" stopTime="0.00" timeLoss="34.97" rerouteNo="0" devices="tripinfo_4235n4219n_27" vType="type1" speedFactor="0.95" vaporized=""/>
    <tripinfo id="south4219_96" depart="43.00" departLane="620377506_0" departPos="5.10" departSpeed="0.00" departDelay="1.00" arrival="57.00" arrivalLane="547625725_0" arrivalPos="73.62" arrivalSpeed="27.28" duration="14.00" routeLength="195.73" waitingTime="0.00" waitingCount="0" stopTime="0.00" timeLoss="10.28" rerouteNo="0" devices="tripinfo_south4219_96" vType="type1" speedFactor="1.01" vaporized=""/>
    <tripinfo id="4235e4219n_1" depart="0.00" departLane="619523290#0_0" departPos="5.10" departSpeed="0.00" departDelay="0.00" arrival="59.00" arrivalLane="620377501#0_0" arrivalPos="20.24" arrivalSpeed="30.54" duration="59.00" routeLength="724.98" waitingTime="14.00" waitingCount="1" stopTime="0.00" timeLoss="45.63" rerouteNo="0" devices="tripinfo_4235e4219n_1" vType="type1" speedFactor="0.94" vaporized=""/>
    <tripinfo id="se4235_15" depart="17.00" departLane="619523290#0_0" departPos="5.10" departSpeed="0.00" departDelay="10.00" arrival="59.00" arrivalLane="628341438#1_0" arrivalPos="36.44" arrivalSpeed="16.75" duration="42.00" routeLength="366.85" waitingTime="11.00" waitingCount="1" stopTime="0.00" timeLoss="34.91" rerouteNo="0" devices="tripinfo_se4235_15" vType="type1" speedFactor="0.93" vaporized=""/>
    <tripinfo id="se4235_22" depart="27.00" departLane="619523290#0_0" departPos="5.10" departSpeed="0.00" departDelay="16.00" arrival="61.00" arrivalLane="628341438#1_0" arrivalPos="36.44" arrivalSpeed="18.52" duration="34.00" routeLength="366.85" waitingTime="2.00" waitingCount="1" stopTime="0.00" timeLoss="26.88" rerouteNo="0" devices="tripinfo_se4235_22" vType="type1" speedFactor="0.98" vaporized=""/>
    <tripinfo id="nw4235_93" depart="41.00" departLane="-628341438#1_0" departPos="5.10" departSpeed="0.00" departDelay="0.00" arrival="61.00" arrivalLane="619523287#1_0" arrivalPos="83.27" arrivalSpeed="27.87" duration="20.00" routeLength="265.87" waitingTime="0.00" waitingCount="0" stopTime="0.00" timeLoss="14.65" rerouteNo="0" devices="tripinfo_nw4235_93" vType="type1" speedFactor="0.92" vaporized=""/>
    <tripinfo id="south4220_14" depart="6.00" departLane="gneE10_0" departPos="5.10" departSpeed="0.00" departDelay="0.00" arrival="62.00" arrivalLane="gneE41_0" arrivalPos="28.67" arrivalSpeed="11.83" duration="56.00" routeLength="64.36" waitingTime="41.00" waitingCount="1" stopTime="0.00" timeLoss="52.07" rerouteNo="0" devices="tripinfo_south4220_14" vType="type1" speedFactor="0.99" vaporized=""/>
    <tripinfo id="se4235_32" depart="40.00" departLane="619523290#0_0" departPos="5.10" departSpeed="0.00" departDelay="23.00" arrival="66.00" arrivalLane="628341438#1_0" arrivalPos="36.44" arrivalSpeed="16.39" duration="26.00" routeLength="366.85" waitingTime="0.00" waitingCount="0" stopTime="0.00" timeLoss="19.25" rerouteNo="0" devices="tripinfo_se4235_32" vType="type1" speedFactor="1.01" vaporized=""/>
    <tripinfo id="4221n4219s_40" depart="20.00" departLane="-620463733_0" departPos="5.10" departSpeed="0.00" departDelay="0.00" arrival="66.00" arrivalLane="547625725_0" arrivalPos="73.62" arrivalSpeed="18.15" duration="46.00" routeLength="597.97" waitingTime="0.00" waitingCount="0" stopTime="0.00" timeLoss="31.43" rerouteNo="0" devices="tripinfo_4221n4219s_40" vType="type1" speedFactor="1.03" vaporized=""/>
    <tripinfo id="north4219_38" depart="23.00" departLane="620377515_0" departPos="5.10" departSpeed="0.00" departDelay="5.00" arrival="70.00" arrivalLane="620377501#0_1" arrivalPos="20.24" arrivalSpeed="19.22" duration="47.00" routeLength="207.90" waitingTime="17.00" waitingCount="2" stopTime="0.00" timeLoss="43.24" rerouteNo="0" devices="tripinfo_north4219_38" vType="type1" speedFactor="1.10" vaporized=""/>
    <tripinfo id="north4219_50" depart="26.00" departLane="620377515_0" departPos="5.10" departSpeed="0.00" departDelay="3.00" arrival="70.00" arrivalLane="620377501#0_2" arrivalPos="20.24" arrivalSpeed="21.68" duration="44.00" routeLength="207.90" waitingTime="15.00" waitingCount="1" stopTime="0.00" timeLoss="39.81" rerouteNo="0" devices="tripinfo_north4219_50" vType="type1" speedFactor="0.85" vaporized=""/>
    <tripinfo id="4221s4220n_82" depart="37.00" departLane="-28594060#4_0" departPos="5.10" departSpeed="0.00" departDelay="0.00" arrival="71.00" arrivalLane="gneE44_0" arrivalPos="38.65" arrivalSpeed="13.68" duration="34.00" routeLength="729.21" waitingTime="0.00" waitingCount="0" stopTime="0.00" timeLoss="16.46" rerouteNo="0" devices="tripinfo_4221s4220n_82" vType="type1" speedFactor="1.02" vaporized=""/>
    <tripinfo id="south4219_133" depart="59.00" departLane="620377506_0" departPos="5.10" departSpeed="0.00" departDelay="0.00" arrival="74.00" arrivalLane="547625725_0" arrivalPos="73.62" arrivalSpeed="26.78" duration="15.00" routeLength="195.73" waitingTime="0.00" waitingCount="0" stopTime="0.00" timeLoss="11.12" rerouteNo="0" devices="tripinfo_south4219_133" vType="type1" speedFactor="1.04" vaporized=""/>
    <tripinfo id="4221n4220s_88" depart="46.00" departLane="-620463733_0" departPos="5.10" departSpeed="0.00" departDelay="8.00" arrival="76.00" arrivalLane="gneE41_0" arrivalPos="28.67" arrivalSpeed="13.52" duration="30.00" routeLength="443.83" waitingTime="0.00" waitingCount="0" stopTime="0.00" timeLoss="19.76" rerouteNo="0" devices="tripinfo_4221n4220s_88" vType="type1" speedFactor="1.01" vaporized=""/>
    <tripinfo id="4235e4219n_11" depart="11.00" departLane="619523290#0_0" departPos="5.10" departSpeed="0.00" departDelay="7.00" arrival="78.00" arrivalLane="620377501#0_0" arrivalPos="20.24" arrivalSpeed="21.71" duration="67.00" routeLength="724.98" waitingTime="12.00" waitingCount="2" stopTime="0.00" timeLoss="53.70" rerouteNo="0" devices="tripinfo_4235e4219n_11" vType="type1" speedFactor="1.03" vaporized=""/>
    <tripinfo id="south4219_150" depart="66.00" departLane="620377506_0" departPos="5.10" departSpeed="0.00" departDelay="0.00" arrival="82.00" arrivalLane="547625725_0" arrivalPos="73.62" arrivalSpeed="23.45" duration="16.00" routeLength="195.73" waitingTime="0.00" waitingCount="0" stopTime="0.00" timeLoss="12.27" rerouteNo="0" devices="tripinfo_south4219_150" vType="type1" speedFactor="0.96" vaporized=""/>
    <tripinfo id="south4219_152" depart="69.00" departLane="620377506_0" departPos="5.10" departSpeed="0.00" departDelay="2.00" arrival="84.00" arrivalLane="547625725_0" arrivalPos="73.62" arrivalSpeed="25.88" duration="15.00" routeLength="195.73" waitingTime="0.00" waitingCount="0" stopTime="0.00" timeLoss="11.07" rerouteNo="0" devices="tripinfo_south4219_152" vType="type1" speedFactor="1.07" vaporized=""/>
    <tripinfo id="north4219_54" depart="29.00" departLane="620377515_0" departPos="5.10" departSpeed="0.00" departDelay="4.00" arrival="86.00" arrivalLane="620377501#0_2" arrivalPos="20.24" arrivalSpeed="21.91" duration="57.00" routeLength="207.90" waitingTime="22.00" waitingCount="3" stopTime="0.00" timeLoss="52.95" rerouteNo="0" devices="tripinfo_north4219_54" vType="type1" speedFactor="1.00" vaporized=""/>
    <tripinfo id="north4219_66" depart="32.00" departLane="620377515_0" departPos="5.10" departSpeed="0.00" departDelay="4.00" arrival="86.00" arrivalLane="620377501#0_1" arrivalPos="20.24" arrivalSpeed="21.66" duration="54.00" routeLength="207.90" waitingTime="23.00" waitingCount="3" stopTime="0.00" timeLoss="49.86" rerouteNo="0" devices="tripinfo_north4219_66" vType="type1" speedFactor="0.91" vaporized=""/>
    <tripinfo id="se4221_94" depart="41.00" departLane="-28594060#4_0" departPos="5.10" departSpeed="0.00" departDelay="0.00" arrival="86.00" arrivalLane="28573015#6_0" arrivalPos="68.82" arrivalSpeed="37.94" duration="45.00" routeLength="955.26" waitingTime="0.00" waitingCount="0" stopTime="0.00" timeLoss="27.76" rerouteNo="0" devices="tripinfo_se4221_94" vType="type1" speedFactor="1.09" vaporized=""/>
    <tripinfo id="nw4235_123" depart="55.00" departLane="-628341438#1_0" departPos="5.10" departSpeed="0.00" departDelay="0.00" arrival="86.00" arrivalLane="619523287#1_0" arrivalPos="83.27" arrivalSpeed="29.99" duration="31.00" routeLength="265.87" waitingTime="6.00" waitingCount="1" stopTime="0.00" timeLoss="25.74" rerouteNo="0" devices="tripinfo_nw4235_123" vType="type1" speedFactor="1.02" vaporized=""/>
    <tripinfo id="nw4235_132" depart="59.00" departLane="-628341438#1_0" departPos="5.10" departSpeed="0.00" departDelay="0.00" arrival="87.00" arrivalLane="619523287#1_1" arrivalPos="83.27" arrivalSpeed="29.35" duration="28.00" routeLength="265.87" waitingTime="4.00" waitingCount="1" stopTime="0.00" timeLoss="22.71" rerouteNo="0" devices="tripinfo_nw4235_132" vType="type1" speedFactor="0.96" vaporized=""/>
    <tripinfo id="south4219_156" depart="72.00" departLane="620377506_0" departPos="5.10" departSpeed="0.00" departDelay="2.00" arrival="92.00" arrivalLane="547625725_0" arrivalPos="73.62" arrivalSpeed="20.90" duration="20.00" routeLength="195.73" waitingTime="0.00" waitingCount="0" stopTime="0.00" timeLoss="16.15" rerouteNo="0" devices="tripinfo_south4219_156" vType="type1" speedFactor="1.18" vaporized=""/>
    <tripinfo id="nw4235_166" depart="74.00" departLane="-628341438#1_0" departPos="5.10" departSpeed="0.00" departDelay="0.00" arrival="93.00" arrivalLane="619523287#1_0" arrivalPos="83.27" arrivalSpeed="29.11" duration="19.00" routeLength="265.87" waitingTime="0.00" waitingCount="0" stopTime="0.00" timeLoss="13.96" rerouteNo="0" devices="tripinfo_nw4235_166" vType="type1" speedFactor="1.00" vaporized=""/>
    <tripinfo id="south4219_173" depart="78.00" departLane="620377506_0" departPos="5.10" departSpeed="0.00" departDelay="0.00" arrival="93.00" arrivalLane="547625725_0" arrivalPos="73.62" arrivalSpeed="22.50" duration="15.00" routeLength="195.73" waitingTime="0.00" waitingCount="0" stopTime="0.00" timeLoss="11.41" rerouteNo="0" devices="tripinfo_south4219_173" vType="type1" speedFactor="1.14" vaporized=""/>
    <tripinfo id="4235e4219n_26" depart="31.00" departLane="619523290#0_0" departPos="5.10" departSpeed="0.00" departDelay="18.00" arrival="94.00" arrivalLane="620377501#0_1" arrivalPos="20.24" arrivalSpeed="21.39" duration="63.00" routeLength="724.98" waitingTime="12.00" waitingCount="1" stopTime="0.00" timeLoss="49.56" rerouteNo="0" devices="tripinfo_4235e4219n_26" vType="type1" speedFactor="0.92" vaporized=""/>
    <tripinfo id="4235e4219n_29" depart="34.00" departLane="619523290#0_0" departPos="5.10" departSpeed="0.00" departDelay="19.00" arrival="94.00" arrivalLane="620377501#0_0" arrivalPos="20.24" arrivalSpeed="15.37" duration="60.00" routeLength="724.98" waitingTime="8.00" waitingCount="1" stopTime="0.00" timeLoss="46.92" rerouteNo="0" devices="tripinfo_4235e4219n_29" vType="type1" speedFactor="0.93" vaporized=""/>
    <tripinfo id="4235n4219n_98" depart="44.00" departLane="-628341438#1_0" departPos="5.10" departSpeed="0.00" departDelay="2.00" arrival="95.00" arrivalLane="620377501#0_1" arrivalPos="20.24" arrivalSpeed="23.74" duration="51.00" routeLength="473.89" waitingTime="14.00" waitingCount="1" stopTime="0.00" timeLoss="42.44" rerouteNo="0" devices="tripinfo_4235n4219n_98" vType="type1" speedFactor="1.12" vaporized=""/>
    <tripinfo id="4235e4219n_33" depart="41.00" departLane="619523290#0_0" departPos="5.10" departSpeed="0.00" departDelay="24.00" arrival="96.00" arrivalLane="620377501#0_0" arrivalPos="20.24" arrivalSpeed="20.46" duration="55.00" routeLength="724.98" waitingTime="8.00" waitingCount="1" stopTime="0.00" timeLoss="41.86" rerouteNo="0" devices="tripinfo_4235e4219n_33" vType="type1" speedFactor="1.17" vaporized=""/>
    <tripinfo id="4219n4235w_31" depart="19.00" departLane="620377515_0" departPos="5.10" departSpeed="0.00" departDelay="3.00" arrival="97.00" arrivalLane="619523287#1_0" arrivalPos="83.27" arrivalSpeed="27.98" duration="78.00" routeLength="464.09" waitingTime="40.00" waitingCount="1" stopTime="0.00" timeLoss="69.37" rerouteNo="0" devices="tripinfo_4219n4235w_31" vType="type1" speedFactor="1.15" vaporized=""/>
    <tripinfo id="4219s4235w_95" depart="42.00" departLane="620377506_0" departPos="5.10" departSpeed="0.00" departDelay="1.00" arrival="98.00" arrivalLane="619523287#1_1" arrivalPos="83.27" arrivalSpeed="27.87" duration="56.00" routeLength="504.90" waitingTime="11.00" waitingCount="2" stopTime="0.00" timeLoss="46.76" rerouteNo="0" devices="tripinfo_4219s4235w_95" vType="type1" speedFactor="1.06" vaporized=""/>
    <tripinfo id="4219s4235w_58" depart="25.00" departLane="620377506_0" departPos="5.10" departSpeed="0.00" departDelay="0.00" arrival="99.00" arrivalLane="619523287#1_0" arrivalPos="83.27" arrivalSpeed="29.50" duration="74.00" routeLength="504.90" waitingTime="29.00" waitingCount="2" stopTime="0.00" timeLoss="64.64" rerouteNo="0" devices="tripinfo_4219s4235w_58" vType="type1" speedFactor="1.02" vaporized=""/>
    <tripinfo id="south4221_118" depart="51.00" departLane="-28594060#4_0" departPos="5.10" departSpeed="0.00" departDelay="0.00" arrival="99.00" arrivalLane="620463733_0" arrivalPos="133.76" arrivalSpeed="34.75" duration="48.00" routeLength="875.34" waitingTime="2.00" waitingCount="1" stopTime="0.00" timeLoss="31.97" rerouteNo="0" devices="tripinfo_south4221_118" vType="type1" speedFactor="0.99" vaporized=""/>
    <tripinfo id="south4221_122" depart="54.00" departLane="-28594060#4_0" departPos="5.10" departSpeed="0.00" departDelay="0.00" arrival="102.00" arrivalLane="620463733_0" arrivalPos="133.76" arrivalSpeed="34.50" duration="48.00" routeLength="875.34" waitingTime="0.00" waitingCount="0" stopTime="0.00" timeLoss="31.91" rerouteNo="0" devices="tripinfo_south4221_122" vType="type1" speedFactor="1.03" vaporized=""/>
</tripinfos>
