<?xml version="1.0" encoding="UTF-8"?>

<!-- generated on 07/10/20 22:53:53 by Eclipse SUMO GUI Version 1.5.0
<configuration xmlns:xsi="http://www.w3.org/2001/XMLSchema-instance" xsi:noNamespaceSchemaLocation="http://sumo.dlr.de/xsd/sumoConfiguration.xsd">

    <input>
        <net-file value="data/osm.net.xml"/>
        <route-files value="data/osm.rou.xml"/>
        <additional-files value="data/osm.det.xml"/>
    </input>

    <output>
        <tripinfo-output value="tripinfo.xml"/>
    </output>

    <time>
        <begin value="0"/>
    </time>

    <report>
        <verbose value="true"/>
        <no-step-log value="true"/>
    </report>

    <traci_server>
        <remote-port value="53456"/>
    </traci_server>

</configuration>
-->

<tripinfos xmlns:xsi="http://www.w3.org/2001/XMLSchema-instance" xsi:noNamespaceSchemaLocation="http://sumo.dlr.de/xsd/tripinfo_file.xsd">
    <tripinfo id="nw4235_0" depart="0.00" departLane="-628341438#1_0" departPos="5.10" departSpeed="0.00" departDelay="0.00" arrival="23.00" arrivalLane="619523287#1_0" arrivalPos="83.27" arrivalSpeed="28.33" duration="23.00" routeLength="291.25" waitingTime="0.00" waitingCount="0" stopTime="0.00" timeLoss="15.68" rerouteNo="0" devices="tripinfo_nw4235_0" vType="DEFAULT_VEHTYPE" speedFactor="1.06" vaporized=""/>
    <tripinfo id="nw4235_10" depart="4.00" departLane="-628341438#1_0" departPos="5.10" departSpeed="0.00" departDelay="0.00" arrival="28.00" arrivalLane="619523287#1_0" arrivalPos="83.27" arrivalSpeed="28.87" duration="24.00" routeLength="291.25" waitingTime="0.00" waitingCount="0" stopTime="0.00" timeLoss="16.96" rerouteNo="0" devices="tripinfo_nw4235_10" vType="DEFAULT_VEHTYPE" speedFactor="1.09" vaporized=""/>
    <tripinfo id="4235e4219n_1" depart="0.00" departLane="619523290#0_0" departPos="5.10" departSpeed="0.00" departDelay="0.00" arrival="32.00" arrivalLane="620377501#0_0" arrivalPos="20.24" arrivalSpeed="33.79" duration="32.00" routeLength="798.42" waitingTime="0.00" waitingCount="0" stopTime="0.00" timeLoss="16.55" rerouteNo="0" devices="tripinfo_4235e4219n_1" vType="DEFAULT_VEHTYPE" speedFactor="0.94" vaporized=""/>
    <tripinfo id="4235e4219s_2" depart="3.00" departLane="619523290#0_0" departPos="5.10" departSpeed="0.00" departDelay="3.00" arrival="39.00" arrivalLane="547625725_0" arrivalPos="73.62" arrivalSpeed="23.81" duration="36.00" routeLength="790.43" waitingTime="0.00" waitingCount="0" stopTime="0.00" timeLoss="19.45" rerouteNo="0" devices="tripinfo_4235e4219s_2" vType="DEFAULT_VEHTYPE" speedFactor="1.01" vaporized=""/>
    <tripinfo id="4235e4219n_11" depart="14.00" departLane="619523290#0_0" departPos="5.10" departSpeed="0.00" departDelay="10.00" arrival="45.00" arrivalLane="620377501#0_0" arrivalPos="20.24" arrivalSpeed="36.16" duration="31.00" routeLength="798.42" waitingTime="0.00" waitingCount="0" stopTime="0.00" timeLoss="15.54" rerouteNo="0" devices="tripinfo_4235e4219n_11" vType="DEFAULT_VEHTYPE" speedFactor="1.03" vaporized=""/>
    <tripinfo id="4219n4235w_31" depart="19.00" departLane="620377515_0" departPos="5.10" departSpeed="0.00" departDelay="3.00" arrival="53.00" arrivalLane="619523287#1_0" arrivalPos="83.27" arrivalSpeed="45.20" duration="34.00" routeLength="638.71" waitingTime="0.00" waitingCount="0" stopTime="0.00" timeLoss="22.11" rerouteNo="0" devices="tripinfo_4219n4235w_31" vType="DEFAULT_VEHTYPE" speedFactor="1.15" vaporized=""/>
    <tripinfo id="4235e4219n_26" depart="37.00" departLane="619523290#0_0" departPos="5.10" departSpeed="0.00" departDelay="24.00" arrival="70.00" arrivalLane="620377501#0_0" arrivalPos="20.24" arrivalSpeed="34.10" duration="33.00" routeLength="798.42" waitingTime="0.00" waitingCount="0" stopTime="0.00" timeLoss="17.70" rerouteNo="0" devices="tripinfo_4235e4219n_26" vType="DEFAULT_VEHTYPE" speedFactor="0.92" vaporized=""/>
    <tripinfo id="4221n4219s_40" depart="20.00" departLane="-620463733_0" departPos="5.10" departSpeed="0.00" departDelay="0.00" arrival="70.00" arrivalLane="547625725_0" arrivalPos="73.62" arrivalSpeed="22.01" duration="50.00" routeLength="724.41" waitingTime="0.00" waitingCount="0" stopTime="0.00" timeLoss="30.61" rerouteNo="0" devices="tripinfo_4221n4219s_40" vType="DEFAULT_VEHTYPE" speedFactor="1.03" vaporized=""/>
    <tripinfo id="4235e4219n_29" depart="40.00" departLane="619523290#0_0" departPos="5.10" departSpeed="0.00" departDelay="25.00" arrival="72.00" arrivalLane="620377501#0_0" arrivalPos="20.24" arrivalSpeed="34.87" duration="32.00" routeLength="798.42" waitingTime="0.00" waitingCount="0" stopTime="0.00" timeLoss="16.73" rerouteNo="0" devices="tripinfo_4235e4219n_29" vType="DEFAULT_VEHTYPE" speedFactor="0.93" vaporized=""/>
    <tripinfo id="south4221_9" depart="3.00" departLane="-28594060#4_0" departPos="5.10" departSpeed="0.00" departDelay="0.00" arrival="77.00" arrivalLane="620463733_0" arrivalPos="133.76" arrivalSpeed="36.96" duration="74.00" routeLength="972.31" waitingTime="24.00" waitingCount="1" stopTime="0.00" timeLoss="54.41" rerouteNo="0" devices="tripinfo_south4221_9" vType="DEFAULT_VEHTYPE" speedFactor="0.86" vaporized=""/>
    <tripinfo id="se4235_3" depart="6.00" departLane="619523290#0_0" departPos="5.10" departSpeed="0.00" departDelay="5.00" arrival="79.00" arrivalLane="628341438#1_0" arrivalPos="36.44" arrivalSpeed="19.00" duration="73.00" routeLength="412.34" waitingTime="38.00" waitingCount="1" stopTime="0.00" timeLoss="63.79" rerouteNo="0" devices="tripinfo_se4235_3" vType="DEFAULT_VEHTYPE" speedFactor="1.08" vaporized=""/>
    <tripinfo id="4235e4221n_4" depart="9.00" departLane="619523290#0_0" departPos="5.10" departSpeed="0.00" departDelay="8.00" arrival="79.00" arrivalLane="28594060#4_0" arrivalPos="123.22" arrivalSpeed="41.83" duration="70.00" routeLength="1590.21" waitingTime="0.00" waitingCount="0" stopTime="0.00" timeLoss="38.01" rerouteNo="0" devices="tripinfo_4235e4221n_4" vType="DEFAULT_VEHTYPE" speedFactor="1.03" vaporized=""/>
    <tripinfo id="4235e4219n_33" depart="48.00" departLane="619523290#0_0" departPos="5.10" departSpeed="0.00" departDelay="31.00" arrival="79.00" arrivalLane="620377501#0_0" arrivalPos="20.24" arrivalSpeed="38.90" duration="31.00" routeLength="798.42" waitingTime="0.00" waitingCount="0" stopTime="0.00" timeLoss="16.54" rerouteNo="0" devices="tripinfo_4235e4219n_33" vType="DEFAULT_VEHTYPE" speedFactor="1.17" vaporized=""/>
    <tripinfo id="se4235_5" depart="12.00" departLane="619523290#0_0" departPos="5.10" departSpeed="0.00" departDelay="10.00" arrival="82.00" arrivalLane="628341438#1_0" arrivalPos="36.44" arrivalSpeed="16.54" duration="70.00" routeLength="412.34" waitingTime="35.00" waitingCount="1" stopTime="0.00" timeLoss="59.23" rerouteNo="0" devices="tripinfo_se4235_5" vType="DEFAULT_VEHTYPE" speedFactor="0.83" vaporized=""/>
    <tripinfo id="4221n4220s_88" depart="46.00" departLane="-620463733_0" departPos="5.10" departSpeed="0.00" departDelay="8.00" arrival="83.00" arrivalLane="gneE41_0" arrivalPos="28.67" arrivalSpeed="13.36" duration="37.00" routeLength="522.68" waitingTime="0.00" waitingCount="0" stopTime="0.00" timeLoss="23.11" rerouteNo="0" devices="tripinfo_4221n4220s_88" vType="DEFAULT_VEHTYPE" speedFactor="1.01" vaporized=""/>
    <tripinfo id="4235e4221n_12" depart="17.00" departLane="619523290#0_0" departPos="5.10" departSpeed="0.00" departDelay="13.00" arrival="84.00" arrivalLane="28594060#4_1" arrivalPos="123.22" arrivalSpeed="42.02" duration="67.00" routeLength="1590.21" waitingTime="0.00" waitingCount="0" stopTime="0.00" timeLoss="35.95" rerouteNo="0" devices="tripinfo_4235e4221n_12" vType="DEFAULT_VEHTYPE" speedFactor="1.05" vaporized=""/>
    <tripinfo id="se4235_15" depart="20.00" departLane="619523290#0_0" departPos="5.10" departSpeed="0.00" departDelay="13.00" arrival="85.00" arrivalLane="628341438#1_0" arrivalPos="36.44" arrivalSpeed="18.80" duration="65.00" routeLength="412.34" waitingTime="25.00" waitingCount="1" stopTime="0.00" timeLoss="55.13" rerouteNo="0" devices="tripinfo_se4235_15" vType="DEFAULT_VEHTYPE" speedFactor="0.93" vaporized=""/>
    <tripinfo id="se4235_22" depart="32.00" departLane="619523290#0_0" departPos="5.10" departSpeed="0.00" departDelay="21.00" arrival="88.00" arrivalLane="628341438#1_0" arrivalPos="36.44" arrivalSpeed="17.39" duration="56.00" routeLength="412.34" waitingTime="15.00" waitingCount="1" stopTime="0.00" timeLoss="46.31" rerouteNo="0" devices="tripinfo_se4235_22" vType="DEFAULT_VEHTYPE" speedFactor="0.98" vaporized=""/>
    <tripinfo id="4235e4219n_39" depart="54.00" departLane="619523290#0_0" departPos="5.10" departSpeed="0.00" departDelay="35.00" arrival="88.00" arrivalLane="620377501#0_0" arrivalPos="20.24" arrivalSpeed="34.17" duration="34.00" routeLength="798.42" waitingTime="0.00" waitingCount="0" stopTime="0.00" timeLoss="19.06" rerouteNo="0" devices="tripinfo_4235e4219n_39" vType="DEFAULT_VEHTYPE" speedFactor="0.90" vaporized=""/>
    <tripinfo id="se4221_94" depart="41.00" departLane="-28594060#4_0" departPos="5.10" departSpeed="0.00" departDelay="0.00" arrival="89.00" arrivalLane="28573015#6_0" arrivalPos="68.82" arrivalSpeed="38.37" duration="48.00" routeLength="1000.38" waitingTime="0.00" waitingCount="0" stopTime="0.00" timeLoss="28.75" rerouteNo="0" devices="tripinfo_se4221_94" vType="DEFAULT_VEHTYPE" speedFactor="1.09" vaporized=""/>
    <tripinfo id="4235e4219n_42" depart="57.00" departLane="619523290#0_0" departPos="5.10" departSpeed="0.00" departDelay="36.00" arrival="90.00" arrivalLane="620377501#0_0" arrivalPos="20.24" arrivalSpeed="37.86" duration="33.00" routeLength="798.42" waitingTime="0.00" waitingCount="0" stopTime="0.00" timeLoss="18.21" rerouteNo="0" devices="tripinfo_4235e4219n_42" vType="DEFAULT_VEHTYPE" speedFactor="1.09" vaporized=""/>
    <tripinfo id="south4219_18" depart="8.00" departLane="620377506_0" departPos="5.10" departSpeed="0.00" departDelay="0.00" arrival="91.00" arrivalLane="547625725_0" arrivalPos="73.62" arrivalSpeed="24.55" duration="83.00" routeLength="287.99" waitingTime="57.00" waitingCount="1" stopTime="0.00" timeLoss="77.42" rerouteNo="0" devices="tripinfo_south4219_18" vType="DEFAULT_VEHTYPE" speedFactor="0.94" vaporized=""/>
    <tripinfo id="se4235_32" depart="46.00" departLane="619523290#0_0" departPos="5.10" departSpeed="0.00" departDelay="29.00" arrival="91.00" arrivalLane="628341438#1_0" arrivalPos="36.44" arrivalSpeed="17.42" duration="45.00" routeLength="412.34" waitingTime="3.00" waitingCount="1" stopTime="0.00" timeLoss="35.36" rerouteNo="0" devices="tripinfo_se4235_32" vType="DEFAULT_VEHTYPE" speedFactor="1.01" vaporized=""/>
    <tripinfo id="south4219_46" depart="22.00" departLane="620377506_0" departPos="5.10" departSpeed="0.00" departDelay="0.00" arrival="91.00" arrivalLane="547625725_1" arrivalPos="73.62" arrivalSpeed="24.60" duration="69.00" routeLength="287.99" waitingTime="41.00" waitingCount="1" stopTime="0.00" timeLoss="63.42" rerouteNo="0" devices="tripinfo_south4219_46" vType="DEFAULT_VEHTYPE" speedFactor="1.00" vaporized=""/>
    <tripinfo id="south4221_118" depart="51.00" departLane="-28594060#4_0" departPos="5.10" departSpeed="0.00" departDelay="0.00" arrival="91.00" arrivalLane="620463733_0" arrivalPos="133.76" arrivalSpeed="39.24" duration="40.00" routeLength="972.31" waitingTime="0.00" waitingCount="0" stopTime="0.00" timeLoss="22.31" rerouteNo="0" devices="tripinfo_south4221_118" vType="DEFAULT_VEHTYPE" speedFactor="0.99" vaporized=""/>
    <tripinfo id="south4219_76" depart="36.00" departLane="620377506_0" departPos="5.10" departSpeed="0.00" departDelay="1.00" arrival="92.00" arrivalLane="547625725_1" arrivalPos="73.62" arrivalSpeed="25.51" duration="56.00" routeLength="287.99" waitingTime="30.00" waitingCount="1" stopTime="0.00" timeLoss="50.62" rerouteNo="0" devices="tripinfo_south4219_76" vType="DEFAULT_VEHTYPE" speedFactor="1.03" vaporized=""/>
    <tripinfo id="south4219_74" depart="33.00" departLane="620377506_0" departPos="5.10" departSpeed="0.00" departDelay="0.00" arrival="93.00" arrivalLane="547625725_0" arrivalPos="73.62" arrivalSpeed="24.01" duration="60.00" routeLength="287.99" waitingTime="34.00" waitingCount="1" stopTime="0.00" timeLoss="54.54" rerouteNo="0" devices="tripinfo_south4219_74" vType="DEFAULT_VEHTYPE" speedFactor="0.96" vaporized=""/>
    <tripinfo id="south4219_96" depart="45.00" departLane="620377506_0" departPos="5.10" departSpeed="0.00" departDelay="3.00" arrival="94.00" arrivalLane="547625725_1" arrivalPos="73.62" arrivalSpeed="24.59" duration="49.00" routeLength="287.99" waitingTime="20.00" waitingCount="1" stopTime="0.00" timeLoss="43.59" rerouteNo="0" devices="tripinfo_south4219_96" vType="DEFAULT_VEHTYPE" speedFactor="1.01" vaporized=""/>
    <tripinfo id="south4219_84" depart="39.00" departLane="620377506_0" departPos="5.10" departSpeed="0.00" departDelay="1.00" arrival="95.00" arrivalLane="547625725_0" arrivalPos="73.62" arrivalSpeed="24.66" duration="56.00" routeLength="287.99" waitingTime="28.00" waitingCount="1" stopTime="0.00" timeLoss="50.45" rerouteNo="0" devices="tripinfo_south4219_84" vType="DEFAULT_VEHTYPE" speedFactor="1.15" vaporized=""/>
    <tripinfo id="south4219_150" depart="66.00" departLane="620377506_0" departPos="5.10" departSpeed="0.00" departDelay="0.00" arrival="96.00" arrivalLane="547625725_1" arrivalPos="73.62" arrivalSpeed="24.91" duration="30.00" routeLength="287.99" waitingTime="0.00" waitingCount="0" stopTime="0.00" timeLoss="24.40" rerouteNo="0" devices="tripinfo_south4219_150" vType="DEFAULT_VEHTYPE" speedFactor="0.96" vaporized=""/>
    <tripinfo id="south4219_133" depart="59.00" departLane="620377506_0" departPos="5.10" departSpeed="0.00" departDelay="0.00" arrival="97.00" arrivalLane="547625725_0" arrivalPos="73.62" arrivalSpeed="24.97" duration="38.00" routeLength="287.99" waitingTime="10.00" waitingCount="1" stopTime="0.00" timeLoss="32.30" rerouteNo="0" devices="tripinfo_south4219_133" vType="DEFAULT_VEHTYPE" speedFactor="1.04" vaporized=""/>
    <tripinfo id="south4219_156" depart="72.00" departLane="620377506_0" departPos="5.10" departSpeed="0.00" departDelay="2.00" arrival="97.00" arrivalLane="547625725_1" arrivalPos="73.62" arrivalSpeed="23.82" duration="25.00" routeLength="287.99" waitingTime="0.00" waitingCount="0" stopTime="0.00" timeLoss="19.72" rerouteNo="0" devices="tripinfo_south4219_156" vType="DEFAULT_VEHTYPE" speedFactor="1.18" vaporized=""/>
    <tripinfo id="south4219_152" depart="69.00" departLane="620377506_0" departPos="5.10" departSpeed="0.00" departDelay="2.00" arrival="98.00" arrivalLane="547625725_0" arrivalPos="73.62" arrivalSpeed="23.78" duration="29.00" routeLength="287.99" waitingTime="0.00" waitingCount="0" stopTime="0.00" timeLoss="23.66" rerouteNo="0" devices="tripinfo_south4219_152" vType="DEFAULT_VEHTYPE" speedFactor="1.07" vaporized=""/>
    <tripinfo id="south4219_173" depart="78.00" departLane="620377506_0" departPos="5.10" departSpeed="0.00" departDelay="0.00" arrival="100.00" arrivalLane="547625725_0" arrivalPos="73.62" arrivalSpeed="25.15" duration="22.00" routeLength="287.99" waitingTime="0.00" waitingCount="0" stopTime="0.00" timeLoss="16.53" rerouteNo="0" devices="tripinfo_south4219_173" vType="DEFAULT_VEHTYPE" speedFactor="1.14" vaporized=""/>
    <tripinfo id="4235e4219n_47" depart="66.00" departLane="619523290#0_0" departPos="5.10" departSpeed="0.00" departDelay="44.00" arrival="101.00" arrivalLane="620377501#0_0" arrivalPos="20.24" arrivalSpeed="30.93" duration="35.00" routeLength="798.42" waitingTime="0.00" waitingCount="0" stopTime="0.00" timeLoss="19.44" rerouteNo="0" devices="tripinfo_4235e4219n_47" vType="DEFAULT_VEHTYPE" speedFactor="0.90" vaporized=""/>
    <tripinfo id="south4219_195" depart="89.00" departLane="620377506_0" departPos="5.10" departSpeed="0.00" departDelay="0.00" arrival="107.00" arrivalLane="547625725_0" arrivalPos="73.62" arrivalSpeed="25.28" duration="18.00" routeLength="287.99" waitingTime="0.00" waitingCount="0" stopTime="0.00" timeLoss="12.02" rerouteNo="0" devices="tripinfo_south4219_195" vType="DEFAULT_VEHTYPE" speedFactor="0.84" vaporized=""/>
    <tripinfo id="nw4235_41" depart="21.00" departLane="-628341438#1_0" departPos="5.10" departSpeed="0.00" departDelay="0.00" arrival="109.00" arrivalLane="619523287#1_0" arrivalPos="83.27" arrivalSpeed="28.05" duration="88.00" routeLength="291.25" waitingTime="60.00" waitingCount="1" stopTime="0.00" timeLoss="80.70" rerouteNo="0" devices="tripinfo_nw4235_41" vType="DEFAULT_VEHTYPE" speedFactor="0.96" vaporized=""/>
    <tripinfo id="nw4235_52" depart="24.00" departLane="-628341438#1_0" departPos="5.10" departSpeed="0.00" departDelay="0.00" arrival="112.00" arrivalLane="619523287#1_0" arrivalPos="83.27" arrivalSpeed="29.42" duration="88.00" routeLength="291.25" waitingTime="57.00" waitingCount="1" stopTime="0.00" timeLoss="80.71" rerouteNo="0" devices="tripinfo_nw4235_52" vType="DEFAULT_VEHTYPE" speedFactor="1.02" vaporized=""/>
    <tripinfo id="south4219_210" depart="96.00" departLane="620377506_0" departPos="5.10" departSpeed="0.00" departDelay="0.00" arrival="113.00" arrivalLane="547625725_0" arrivalPos="73.62" arrivalSpeed="27.97" duration="17.00" routeLength="287.99" waitingTime="0.00" waitingCount="0" stopTime="0.00" timeLoss="11.69" rerouteNo="0" devices="tripinfo_south4219_210" vType="DEFAULT_VEHTYPE" speedFactor="1.10" vaporized=""/>
    <tripinfo id="se4221_153" depart="67.00" departLane="-28594060#4_0" departPos="5.10" departSpeed="0.00" departDelay="0.00" arrival="114.00" arrivalLane="28573015#6_0" arrivalPos="68.82" arrivalSpeed="40.01" duration="47.00" routeLength="1000.38" waitingTime="0.00" waitingCount="0" stopTime="0.00" timeLoss="27.74" rerouteNo="0" devices="tripinfo_se4221_153" vType="DEFAULT_VEHTYPE" speedFactor="0.93" vaporized=""/>
    <tripinfo id="north4219_6" depart="2.00" departLane="620377515_0" departPos="5.10" departSpeed="0.00" departDelay="0.00" arrival="116.00" arrivalLane="620377501#0_1" arrivalPos="20.24" arrivalSpeed="22.02" duration="114.00" routeLength="301.34" waitingTime="79.00" waitingCount="2" stopTime="0.00" timeLoss="108.30" rerouteNo="0" devices="tripinfo_north4219_6" vType="DEFAULT_VEHTYPE" speedFactor="1.05" vaporized=""/>
    <tripinfo id="north4219_8" depart="5.00" departLane="620377515_0" departPos="5.10" departSpeed="0.00" departDelay="2.00" arrival="116.00" arrivalLane="620377501#0_2" arrivalPos="20.24" arrivalSpeed="24.31" duration="111.00" routeLength="301.34" waitingTime="74.00" waitingCount="2" stopTime="0.00" timeLoss="104.97" rerouteNo="0" devices="tripinfo_north4219_8" vType="DEFAULT_VEHTYPE" speedFactor="0.94" vaporized=""/>
    <tripinfo id="south4220_14" depart="6.00" departLane="gneE10_0" departPos="5.10" departSpeed="0.00" departDelay="0.00" arrival="116.00" arrivalLane="gneE41_0" arrivalPos="28.67" arrivalSpeed="12.89" duration="110.00" routeLength="130.18" waitingTime="89.00" waitingCount="1" stopTime="0.00" timeLoss="101.99" rerouteNo="0" devices="tripinfo_south4220_14" vType="DEFAULT_VEHTYPE" speedFactor="0.99" vaporized=""/>
    <tripinfo id="se4235_51" depart="75.00" departLane="619523290#0_0" departPos="5.10" departSpeed="0.00" departDelay="51.00" arrival="116.00" arrivalLane="628341438#1_0" arrivalPos="36.44" arrivalSpeed="17.91" duration="41.00" routeLength="412.34" waitingTime="7.00" waitingCount="1" stopTime="0.00" timeLoss="31.90" rerouteNo="0" devices="tripinfo_se4235_51" vType="DEFAULT_VEHTYPE" speedFactor="1.17" vaporized=""/>
    <tripinfo id="north4219_28" depart="16.00" departLane="620377515_0" departPos="5.10" departSpeed="0.00" departDelay="1.00" arrival="117.00" arrivalLane="620377501#0_2" arrivalPos="20.24" arrivalSpeed="22.93" duration="101.00" routeLength="301.34" waitingTime="63.00" waitingCount="2" stopTime="0.00" timeLoss="95.43" rerouteNo="0" devices="tripinfo_north4219_28" vType="DEFAULT_VEHTYPE" speedFactor="1.13" vaporized=""/>
    <tripinfo id="nw4235_65" depart="28.00" departLane="-628341438#1_0" departPos="5.10" departSpeed="0.00" departDelay="0.00" arrival="117.00" arrivalLane="619523287#1_0" arrivalPos="83.27" arrivalSpeed="28.90" duration="89.00" routeLength="291.25" waitingTime="56.00" waitingCount="2" stopTime="0.00" timeLoss="81.68" rerouteNo="0" devices="tripinfo_nw4235_65" vType="DEFAULT_VEHTYPE" speedFactor="0.88" vaporized=""/>
    <tripinfo id="north4219_24" depart="13.00" departLane="620377515_0" departPos="5.10" departSpeed="0.00" departDelay="0.00" arrival="118.00" arrivalLane="620377501#0_1" arrivalPos="20.24" arrivalSpeed="24.08" duration="105.00" routeLength="301.34" waitingTime="67.00" waitingCount="2" stopTime="0.00" timeLoss="98.29" rerouteNo="0" devices="tripinfo_north4219_24" vType="DEFAULT_VEHTYPE" speedFactor="0.83" vaporized=""/>
    <tripinfo id="south4219_220" depart="100.00" departLane="620377506_0" departPos="5.10" departSpeed="0.00" departDelay="0.00" arrival="118.00" arrivalLane="547625725_0" arrivalPos="73.62" arrivalSpeed="28.94" duration="18.00" routeLength="287.99" waitingTime="0.00" waitingCount="0" stopTime="0.00" timeLoss="12.30" rerouteNo="0" devices="tripinfo_south4219_220" vType="DEFAULT_VEHTYPE" speedFactor="1.00" vaporized=""/>
    <tripinfo id="north4219_38" depart="23.00" departLane="620377515_0" departPos="5.10" departSpeed="0.00" departDelay="5.00" arrival="119.00" arrivalLane="620377501#0_1" arrivalPos="20.24" arrivalSpeed="23.91" duration="96.00" routeLength="301.34" waitingTime="58.00" waitingCount="2" stopTime="0.00" timeLoss="90.47" rerouteNo="0" devices="tripinfo_north4219_38" vType="DEFAULT_VEHTYPE" speedFactor="1.10" vaporized=""/>
    <tripinfo id="north4219_50" depart="26.00" departLane="620377515_0" departPos="5.10" departSpeed="0.00" departDelay="3.00" arrival="119.00" arrivalLane="620377501#0_2" arrivalPos="20.24" arrivalSpeed="22.49" duration="93.00" routeLength="301.34" waitingTime="56.00" waitingCount="2" stopTime="0.00" timeLoss="87.03" rerouteNo="0" devices="tripinfo_north4219_50" vType="DEFAULT_VEHTYPE" speedFactor="0.85" vaporized=""/>
    <tripinfo id="south4220_55" depart="25.00" departLane="gneE10_0" departPos="5.10" departSpeed="0.00" departDelay="0.00" arrival="120.00" arrivalLane="gneE41_0" arrivalPos="28.67" arrivalSpeed="13.48" duration="95.00" routeLength="130.18" waitingTime="73.00" waitingCount="1" stopTime="0.00" timeLoss="87.20" rerouteNo="0" devices="tripinfo_south4220_55" vType="DEFAULT_VEHTYPE" speedFactor="1.00" vaporized=""/>
    <tripinfo id="north4219_54" depart="29.00" departLane="620377515_0" departPos="5.10" departSpeed="0.00" departDelay="4.00" arrival="121.00" arrivalLane="620377501#0_1" arrivalPos="20.24" arrivalSpeed="26.52" duration="92.00" routeLength="301.34" waitingTime="58.00" waitingCount="2" stopTime="0.00" timeLoss="86.20" rerouteNo="0" devices="tripinfo_north4219_54" vType="DEFAULT_VEHTYPE" speedFactor="1.00" vaporized=""/>
    <tripinfo id="nw4235_93" depart="41.00" departLane="-628341438#1_0" departPos="5.10" departSpeed="0.00" departDelay="0.00" arrival="121.00" arrivalLane="619523287#1_0" arrivalPos="83.27" arrivalSpeed="28.98" duration="80.00" routeLength="291.25" waitingTime="45.00" waitingCount="1" stopTime="0.00" timeLoss="72.61" rerouteNo="0" devices="tripinfo_nw4235_93" vType="DEFAULT_VEHTYPE" speedFactor="0.92" vaporized=""/>
    <tripinfo id="north4219_66" depart="32.00" departLane="620377515_0" departPos="5.10" departSpeed="0.00" departDelay="4.00" arrival="122.00" arrivalLane="620377501#0_2" arrivalPos="20.24" arrivalSpeed="27.79" duration="90.00" routeLength="301.34" waitingTime="57.00" waitingCount="2" stopTime="0.00" timeLoss="84.03" rerouteNo="0" devices="tripinfo_north4219_66" vType="DEFAULT_VEHTYPE" speedFactor="0.91" vaporized=""/>
    <tripinfo id="north4219_77" depart="36.00" departLane="620377515_0" departPos="5.10" departSpeed="0.00" departDelay="0.00" arrival="123.00" arrivalLane="620377501#0_1" arrivalPos="20.24" arrivalSpeed="26.34" duration="87.00" routeLength="301.34" waitingTime="52.00" waitingCount="2" stopTime="0.00" timeLoss="81.12" rerouteNo="0" devices="tripinfo_north4219_77" vType="DEFAULT_VEHTYPE" speedFactor="0.98" vaporized=""/>
    <tripinfo id="north4219_91" depart="40.00" departLane="620377515_0" departPos="5.10" departSpeed="0.00" departDelay="0.00" arrival="124.00" arrivalLane="620377501#0_2" arrivalPos="20.24" arrivalSpeed="27.01" duration="84.00" routeLength="301.34" waitingTime="49.00" waitingCount="2" stopTime="0.00" timeLoss="77.86" rerouteNo="0" devices="tripinfo_north4219_91" vType="DEFAULT_VEHTYPE" speedFactor="0.89" vaporized=""/>
    <tripinfo id="north4219_104" depart="44.00" departLane="620377515_0" departPos="5.10" departSpeed="0.00" departDelay="0.00" arrival="125.00" arrivalLane="620377501#0_1" arrivalPos="20.24" arrivalSpeed="27.33" duration="81.00" routeLength="301.34" waitingTime="45.00" waitingCount="2" stopTime="0.00" timeLoss="74.91" rerouteNo="0" devices="tripinfo_north4219_104" vType="DEFAULT_VEHTYPE" speedFactor="0.89" vaporized=""/>
    <tripinfo id="4221n4220s_182" depart="91.00" departLane="-620463733_0" departPos="5.10" departSpeed="0.00" departDelay="8.00" arrival="125.00" arrivalLane="gneE41_0" arrivalPos="28.67" arrivalSpeed="14.08" duration="34.00" routeLength="522.68" waitingTime="0.00" waitingCount="0" stopTime="0.00" timeLoss="20.64" rerouteNo="0" devices="tripinfo_4221n4220s_182" vType="DEFAULT_VEHTYPE" speedFactor="1.03" vaporized=""/>
    <tripinfo id="north4219_168" depart="75.00" departLane="620377515_0" departPos="5.10" departSpeed="0.00" departDelay="0.00" arrival="126.00" arrivalLane="620377501#0_2" arrivalPos="20.24" arrivalSpeed="28.54" duration="51.00" routeLength="301.34" waitingTime="17.00" waitingCount="1" stopTime="0.00" timeLoss="44.97" rerouteNo="0" devices="tripinfo_north4219_168" vType="DEFAULT_VEHTYPE" speedFactor="0.98" vaporized=""/>
    <tripinfo id="4219s4221e_20" depart="11.00" departLane="620377506_0" departPos="5.10" departSpeed="0.00" departDelay="2.00" arrival="131.00" arrivalLane="28573015#6_0" arrivalPos="68.82" arrivalSpeed="41.65" duration="120.00" routeLength="858.75" waitingTime="59.00" waitingCount="2" stopTime="0.00" timeLoss="101.58" rerouteNo="0" devices="tripinfo_4219s4221e_20" vType="DEFAULT_VEHTYPE" speedFactor="1.02" vaporized=""/>
    <tripinfo id="south4220_101" depart="114.00" departLane="gneE10_0" departPos="5.10" departSpeed="0.00" departDelay="71.00" arrival="132.00" arrivalLane="gneE41_0" arrivalPos="28.67" arrivalSpeed="12.54" duration="18.00" routeLength="130.18" waitingTime="0.00" waitingCount="0" stopTime="0.00" timeLoss="9.22" rerouteNo="0" devices="tripinfo_south4220_101" vType="DEFAULT_VEHTYPE" speedFactor="0.96" vaporized=""/>
    <tripinfo id="north4221_19" depart="9.00" departLane="-620463733_0" departPos="5.10" departSpeed="0.00" departDelay="0.00" arrival="134.00" arrivalLane="28594060#4_0" arrivalPos="123.22" arrivalSpeed="44.33" duration="125.00" routeLength="979.20" waitingTime="64.00" waitingCount="2" stopTime="0.00" timeLoss="106.79" rerouteNo="0" devices="tripinfo_north4221_19" vType="DEFAULT_VEHTYPE" speedFactor="1.16" vaporized=""/>
    <tripinfo id="4221n4219n_37" depart="17.00" departLane="-620463733_0" departPos="5.10" departSpeed="0.00" departDelay="0.00" arrival="134.00" arrivalLane="620377501#0_1" arrivalPos="20.24" arrivalSpeed="27.96" duration="117.00" routeLength="807.57" waitingTime="62.00" waitingCount="1" stopTime="0.00" timeLoss="96.43" rerouteNo="0" devices="tripinfo_4221n4219n_37" vType="DEFAULT_VEHTYPE" speedFactor="1.18" vaporized=""/>
    <tripinfo id="4221n4219n_57" depart="25.00" departLane="-620463733_0" departPos="5.10" departSpeed="0.00" departDelay="0.00" arrival="135.00" arrivalLane="620377501#0_2" arrivalPos="20.24" arrivalSpeed="27.33" duration="110.00" routeLength="802.38" waitingTime="53.00" waitingCount="1" stopTime="0.00" timeLoss="88.91" rerouteNo="0" devices="tripinfo_4221n4219n_57" vType="DEFAULT_VEHTYPE" speedFactor="1.14" vaporized=""/>
    <tripinfo id="4221w4220s_107" depart="44.00" departLane="-28573015#6_0" departPos="5.10" departSpeed="0.00" departDelay="0.00" arrival="135.00" arrivalLane="gneE41_0" arrivalPos="28.67" arrivalSpeed="13.29" duration="91.00" routeLength="621.82" waitingTime="48.00" waitingCount="1" stopTime="0.00" timeLoss="76.64" rerouteNo="0" devices="tripinfo_4221w4220s_107" vType="DEFAULT_VEHTYPE" speedFactor="1.03" vaporized=""/>
    <tripinfo id="4220s4219n_45" depart="21.00" departLane="gneE10_0" departPos="5.10" departSpeed="0.00" departDelay="0.00" arrival="136.00" arrivalLane="620377501#0_1" arrivalPos="20.24" arrivalSpeed="25.45" duration="115.00" routeLength="385.24" waitingTime="75.00" waitingCount="1" stopTime="0.00" timeLoss="102.57" rerouteNo="0" devices="tripinfo_4220s4219n_45" vType="DEFAULT_VEHTYPE" speedFactor="1.09" vaporized=""/>
    <tripinfo id="north4221_7" depart="2.00" departLane="-620463733_0" departPos="5.10" departSpeed="0.00" departDelay="0.00" arrival="137.00" arrivalLane="28594060#4_0" arrivalPos="123.22" arrivalSpeed="42.23" duration="135.00" routeLength="979.20" waitingTime="71.00" waitingCount="2" stopTime="0.00" timeLoss="115.73" rerouteNo="0" devices="tripinfo_north4221_7" vType="DEFAULT_VEHTYPE" speedFactor="0.89" vaporized=""/>
    <tripinfo id="4220s4219n_36" depart="17.00" departLane="gneE10_0" departPos="5.10" departSpeed="0.00" departDelay="0.00" arrival="137.00" arrivalLane="620377501#0_2" arrivalPos="20.24" arrivalSpeed="26.70" duration="120.00" routeLength="380.05" waitingTime="79.00" waitingCount="2" stopTime="0.00" timeLoss="106.96" rerouteNo="0" devices="tripinfo_4220s4219n_36" vType="DEFAULT_VEHTYPE" speedFactor="0.97" vaporized=""/>