<?xml version="1.0" encoding="UTF-8"?>

<!-- generated on 07/09/20 11:30:39 by Eclipse SUMO GUI Version 1.5.0
<configuration xmlns:xsi="http://www.w3.org/2001/XMLSchema-instance" xsi:noNamespaceSchemaLocation="http://sumo.dlr.de/xsd/sumoConfiguration.xsd">

    <input>
        <net-file value="data/osm.net.xml"/>
        <route-files value="data/osm.rou.xml"/>
        <additional-files value="data/osm.det.xml"/>
    </input>

    <output>
        <tripinfo-output value="tripinfo.xml"/>
    </output>

    <time>
        <begin value="0"/>
    </time>

    <report>
        <verbose value="true"/>
        <no-step-log value="true"/>
    </report>

    <traci_server>
        <remote-port value="56142"/>
    </traci_server>

</configuration>
-->

<tripinfos xmlns:xsi="http://www.w3.org/2001/XMLSchema-instance" xsi:noNamespaceSchemaLocation="http://sumo.dlr.de/xsd/tripinfo_file.xsd">
    <tripinfo id="nw4235_0" depart="0.00" departLane="-628341438#1_0" departPos="5.10" departSpeed="0.00" departDelay="0.00" arrival="22.00" arrivalLane="619523287#1_0" arrivalPos="83.27" arrivalSpeed="29.34" duration="22.00" routeLength="291.25" waitingTime="0.00" waitingCount="0" stopTime="0.00" timeLoss="14.61" rerouteNo="0" devices="tripinfo_nw4235_0" vType="DEFAULT_VEHTYPE" speedFactor="1.06" vaporized=""/>
    <tripinfo id="north4219_6" depart="2.00" departLane="620377515_0" departPos="5.10" departSpeed="0.00" departDelay="0.00" arrival="23.00" arrivalLane="620377501#0_1" arrivalPos="20.24" arrivalSpeed="30.40" duration="21.00" routeLength="301.34" waitingTime="0.00" waitingCount="0" stopTime="0.00" timeLoss="15.04" rerouteNo="0" devices="tripinfo_north4219_6" vType="DEFAULT_VEHTYPE" speedFactor="1.05" vaporized=""/>
    <tripinfo id="north4219_8" depart="5.00" departLane="620377515_0" departPos="5.10" departSpeed="0.00" departDelay="2.00" arrival="24.00" arrivalLane="620377501#0_1" arrivalPos="20.24" arrivalSpeed="30.04" duration="19.00" routeLength="301.34" waitingTime="0.00" waitingCount="0" stopTime="0.00" timeLoss="13.15" rerouteNo="0" devices="tripinfo_north4219_8" vType="DEFAULT_VEHTYPE" speedFactor="0.94" vaporized=""/>
    <tripinfo id="nw4235_10" depart="4.00" departLane="-628341438#1_0" departPos="5.10" departSpeed="0.00" departDelay="0.00" arrival="27.00" arrivalLane="619523287#1_0" arrivalPos="83.27" arrivalSpeed="28.71" duration="23.00" routeLength="291.25" waitingTime="0.00" waitingCount="0" stopTime="0.00" timeLoss="16.17" rerouteNo="0" devices="tripinfo_nw4235_10" vType="DEFAULT_VEHTYPE" speedFactor="1.09" vaporized=""/>
    <tripinfo id="north4219_24" depart="13.00" departLane="620377515_0" departPos="5.10" departSpeed="0.00" departDelay="0.00" arrival="30.00" arrivalLane="620377501#0_1" arrivalPos="20.24" arrivalSpeed="33.16" duration="17.00" routeLength="301.34" waitingTime="0.00" waitingCount="0" stopTime="0.00" timeLoss="10.83" rerouteNo="0" devices="tripinfo_north4219_24" vType="DEFAULT_VEHTYPE" speedFactor="0.83" vaporized=""/>
    <tripinfo id="south4221_9" depart="3.00" departLane="-28594060#4_0" departPos="5.10" departSpeed="0.00" departDelay="0.00" arrival="35.00" arrivalLane="620463733_0" arrivalPos="133.76" arrivalSpeed="50.95" duration="32.00" routeLength="972.31" waitingTime="0.00" waitingCount="0" stopTime="0.00" timeLoss="12.62" rerouteNo="0" devices="tripinfo_south4221_9" vType="DEFAULT_VEHTYPE" speedFactor="0.86" vaporized=""/>
    <tripinfo id="4235e4219n_1" depart="0.00" departLane="619523290#0_0" departPos="5.10" departSpeed="0.00" departDelay="0.00" arrival="41.00" arrivalLane="620377501#0_0" arrivalPos="20.24" arrivalSpeed="22.61" duration="41.00" routeLength="798.42" waitingTime="0.00" waitingCount="0" stopTime="0.00" timeLoss="26.02" rerouteNo="0" devices="tripinfo_4235e4219n_1" vType="DEFAULT_VEHTYPE" speedFactor="0.94" vaporized=""/>
    <tripinfo id="4219s4221e_20" depart="11.00" departLane="620377506_0" departPos="5.10" departSpeed="0.00" departDelay="2.00" arrival="49.00" arrivalLane="28573015#6_0" arrivalPos="68.82" arrivalSpeed="51.85" duration="38.00" routeLength="858.60" waitingTime="0.00" waitingCount="0" stopTime="0.00" timeLoss="21.82" rerouteNo="0" devices="tripinfo_4219s4221e_20" vType="DEFAULT_VEHTYPE" speedFactor="1.02" vaporized=""/>
    <tripinfo id="4219n4235w_31" depart="19.00" departLane="620377515_0" departPos="5.10" departSpeed="0.00" departDelay="3.00" arrival="49.00" arrivalLane="619523287#1_0" arrivalPos="83.27" arrivalSpeed="49.01" duration="30.00" routeLength="638.71" waitingTime="0.00" waitingCount="0" stopTime="0.00" timeLoss="17.89" rerouteNo="0" devices="tripinfo_4219n4235w_31" vType="DEFAULT_VEHTYPE" speedFactor="1.15" vaporized=""/>
    <tripinfo id="4235e4219n_11" depart="14.00" departLane="619523290#0_0" departPos="5.10" departSpeed="0.00" departDelay="10.00" arrival="54.00" arrivalLane="620377501#0_0" arrivalPos="20.24" arrivalSpeed="24.59" duration="40.00" routeLength="798.42" waitingTime="0.00" waitingCount="0" stopTime="0.00" timeLoss="24.99" rerouteNo="0" devices="tripinfo_4235e4219n_11" vType="DEFAULT_VEHTYPE" speedFactor="1.03" vaporized=""/>
    <tripinfo id="4235e4219s_2" depart="3.00" departLane="619523290#0_0" departPos="5.10" departSpeed="0.00" departDelay="3.00" arrival="58.00" arrivalLane="547625725_0" arrivalPos="73.62" arrivalSpeed="24.10" duration="55.00" routeLength="790.43" waitingTime="12.00" waitingCount="1" stopTime="0.00" timeLoss="37.98" rerouteNo="0" devices="tripinfo_4235e4219s_2" vType="DEFAULT_VEHTYPE" speedFactor="1.01" vaporized=""/>
    <tripinfo id="4235e4219s_16" depart="23.00" departLane="619523290#0_0" departPos="5.10" departSpeed="0.00" departDelay="16.00" arrival="62.00" arrivalLane="547625725_0" arrivalPos="73.62" arrivalSpeed="21.68" duration="39.00" routeLength="790.43" waitingTime="0.00" waitingCount="0" stopTime="0.00" timeLoss="20.84" rerouteNo="0" devices="tripinfo_4235e4219s_16" vType="DEFAULT_VEHTYPE" speedFactor="0.88" vaporized=""/>
    <tripinfo id="4235e4219n_26" depart="38.00" departLane="619523290#0_0" departPos="5.10" departSpeed="0.00" departDelay="25.00" arrival="78.00" arrivalLane="620377501#0_0" arrivalPos="20.24" arrivalSpeed="22.22" duration="40.00" routeLength="798.42" waitingTime="0.00" waitingCount="0" stopTime="0.00" timeLoss="25.14" rerouteNo="0" devices="tripinfo_4235e4219n_26" vType="DEFAULT_VEHTYPE" speedFactor="0.92" vaporized=""/>
    <tripinfo id="4219s4235w_95" depart="42.00" departLane="620377506_0" departPos="5.10" departSpeed="0.00" departDelay="1.00" arrival="78.00" arrivalLane="619523287#1_2" arrivalPos="83.27" arrivalSpeed="46.89" duration="36.00" routeLength="716.96" waitingTime="1.00" waitingCount="1" stopTime="0.00" timeLoss="20.65" rerouteNo="0" devices="tripinfo_4219s4235w_95" vType="DEFAULT_VEHTYPE" speedFactor="1.06" vaporized=""/>
    <tripinfo id="south4219_46" depart="22.00" departLane="620377506_0" departPos="5.10" departSpeed="0.00" departDelay="0.00" arrival="79.00" arrivalLane="547625725_1" arrivalPos="73.62" arrivalSpeed="24.81" duration="57.00" routeLength="287.99" waitingTime="30.00" waitingCount="1" stopTime="0.00" timeLoss="51.39" rerouteNo="0" devices="tripinfo_south4219_46" vType="DEFAULT_VEHTYPE" speedFactor="1.00" vaporized=""/>
    <tripinfo id="4235e4221n_4" depart="8.00" departLane="619523290#0_0" departPos="5.10" departSpeed="0.00" departDelay="7.00" arrival="80.00" arrivalLane="28594060#4_0" arrivalPos="123.22" arrivalSpeed="43.25" duration="72.00" routeLength="1589.88" waitingTime="0.00" waitingCount="0" stopTime="0.00" timeLoss="43.05" rerouteNo="0" devices="tripinfo_4235e4221n_4" vType="DEFAULT_VEHTYPE" speedFactor="1.03" vaporized=""/>
    <tripinfo id="south4219_18" depart="8.00" departLane="620377506_0" departPos="5.10" departSpeed="0.00" departDelay="0.00" arrival="80.00" arrivalLane="547625725_0" arrivalPos="73.62" arrivalSpeed="23.99" duration="72.00" routeLength="287.99" waitingTime="45.00" waitingCount="1" stopTime="0.00" timeLoss="66.28" rerouteNo="0" devices="tripinfo_south4219_18" vType="DEFAULT_VEHTYPE" speedFactor="0.94" vaporized=""/>
    <tripinfo id="4235e4219n_29" depart="41.00" departLane="619523290#0_0" departPos="5.10" departSpeed="0.00" departDelay="26.00" arrival="80.00" arrivalLane="620377501#0_0" arrivalPos="20.24" arrivalSpeed="25.25" duration="39.00" routeLength="798.42" waitingTime="0.00" waitingCount="0" stopTime="0.00" timeLoss="23.91" rerouteNo="0" devices="tripinfo_4235e4219n_29" vType="DEFAULT_VEHTYPE" speedFactor="0.93" vaporized=""/>
    <tripinfo id="4219s4235w_58" depart="25.00" departLane="620377506_0" departPos="5.10" departSpeed="0.00" departDelay="0.00" arrival="80.00" arrivalLane="619523287#1_1" arrivalPos="83.27" arrivalSpeed="47.23" duration="55.00" routeLength="721.74" waitingTime="16.00" waitingCount="1" stopTime="0.00" timeLoss="39.55" rerouteNo="0" devices="tripinfo_4219s4235w_58" vType="DEFAULT_VEHTYPE" speedFactor="1.02" vaporized=""/>
    <tripinfo id="south4219_74" depart="33.00" departLane="620377506_0" departPos="5.10" departSpeed="0.00" departDelay="0.00" arrival="81.00" arrivalLane="547625725_0" arrivalPos="73.62" arrivalSpeed="21.57" duration="48.00" routeLength="287.99" waitingTime="19.00" waitingCount="1" stopTime="0.00" timeLoss="42.75" rerouteNo="0" devices="tripinfo_south4219_74" vType="DEFAULT_VEHTYPE" speedFactor="0.96" vaporized=""/>
    <tripinfo id="south4219_76" depart="36.00" departLane="620377506_0" departPos="5.10" departSpeed="0.00" departDelay="1.00" arrival="81.00" arrivalLane="547625725_1" arrivalPos="73.62" arrivalSpeed="23.88" duration="45.00" routeLength="287.99" waitingTime="17.00" waitingCount="1" stopTime="0.00" timeLoss="39.47" rerouteNo="0" devices="tripinfo_south4219_76" vType="DEFAULT_VEHTYPE" speedFactor="1.03" vaporized=""/>
    <tripinfo id="south4219_96" depart="45.00" departLane="620377506_0" departPos="5.10" departSpeed="0.00" departDelay="3.00" arrival="82.00" arrivalLane="547625725_1" arrivalPos="73.62" arrivalSpeed="23.35" duration="37.00" routeLength="287.99" waitingTime="10.00" waitingCount="1" stopTime="0.00" timeLoss="31.70" rerouteNo="0" devices="tripinfo_south4219_96" vType="DEFAULT_VEHTYPE" speedFactor="1.01" vaporized=""/>
    <tripinfo id="south4219_84" depart="39.00" departLane="620377506_0" departPos="5.10" departSpeed="0.00" departDelay="1.00" arrival="83.00" arrivalLane="547625725_0" arrivalPos="73.62" arrivalSpeed="22.34" duration="44.00" routeLength="287.99" waitingTime="14.00" waitingCount="1" stopTime="0.00" timeLoss="38.53" rerouteNo="0" devices="tripinfo_south4219_84" vType="DEFAULT_VEHTYPE" speedFactor="1.15" vaporized=""/>
    <tripinfo id="4221n4220s_88" depart="46.00" departLane="-620463733_0" departPos="5.10" departSpeed="0.00" departDelay="8.00" arrival="83.00" arrivalLane="gneE41_0" arrivalPos="28.67" arrivalSpeed="13.86" duration="37.00" routeLength="522.77" waitingTime="0.00" waitingCount="0" stopTime="0.00" timeLoss="22.94" rerouteNo="0" devices="tripinfo_4221n4220s_88" vType="DEFAULT_VEHTYPE" speedFactor="1.01" vaporized=""/>
    <tripinfo id="south4219_133" depart="59.00" departLane="620377506_0" departPos="5.10" departSpeed="0.00" departDelay="0.00" arrival="84.00" arrivalLane="547625725_1" arrivalPos="73.62" arrivalSpeed="24.76" duration="25.00" routeLength="287.99" waitingTime="0.00" waitingCount="0" stopTime="0.00" timeLoss="19.57" rerouteNo="0" devices="tripinfo_south4219_133" vType="DEFAULT_VEHTYPE" speedFactor="1.04" vaporized=""/>
    <tripinfo id="south4219_150" depart="66.00" departLane="620377506_0" departPos="5.10" departSpeed="0.00" departDelay="0.00" arrival="85.00" arrivalLane="547625725_0" arrivalPos="73.62" arrivalSpeed="26.98" duration="19.00" routeLength="287.99" waitingTime="0.00" waitingCount="0" stopTime="0.00" timeLoss="13.56" rerouteNo="0" devices="tripinfo_south4219_150" vType="DEFAULT_VEHTYPE" speedFactor="0.96" vaporized=""/>
    <tripinfo id="4221s4220n_82" depart="37.00" departLane="-28594060#4_0" departPos="5.10" departSpeed="0.00" departDelay="0.00" arrival="86.00" arrivalLane="gneE44_0" arrivalPos="38.13" arrivalSpeed="12.98" duration="49.00" routeLength="863.02" waitingTime="0.00" waitingCount="0" stopTime="0.00" timeLoss="22.99" rerouteNo="0" devices="tripinfo_4221s4220n_82" vType="DEFAULT_VEHTYPE" speedFactor="1.02" vaporized=""/>
    <tripinfo id="se4221_94" depart="41.00" departLane="-28594060#4_0" departPos="5.10" departSpeed="0.00" departDelay="0.00" arrival="87.00" arrivalLane="28573015#6_0" arrivalPos="68.82" arrivalSpeed="41.11" duration="46.00" routeLength="1000.38" waitingTime="0.00" waitingCount="0" stopTime="0.00" timeLoss="26.83" rerouteNo="0" devices="tripinfo_se4221_94" vType="DEFAULT_VEHTYPE" speedFactor="1.09" vaporized=""/>
    <tripinfo id="south4219_152" depart="69.00" departLane="620377506_0" departPos="5.10" departSpeed="0.00" departDelay="2.00" arrival="87.00" arrivalLane="547625725_0" arrivalPos="73.62" arrivalSpeed="27.44" duration="18.00" routeLength="287.99" waitingTime="0.00" waitingCount="0" stopTime="0.00" timeLoss="12.69" rerouteNo="0" devices="tripinfo_south4219_152" vType="DEFAULT_VEHTYPE" speedFactor="1.07" vaporized=""/>
    <tripinfo id="4235e4219n_33" depart="50.00" departLane="619523290#0_0" departPos="5.10" departSpeed="0.00" departDelay="33.00" arrival="89.00" arrivalLane="620377501#0_0" arrivalPos="20.24" arrivalSpeed="24.05" duration="39.00" routeLength="798.42" waitingTime="0.00" waitingCount="0" stopTime="0.00" timeLoss="24.42" rerouteNo="0" devices="tripinfo_4235e4219n_33" vType="DEFAULT_VEHTYPE" speedFactor="1.17" vaporized=""/>
    <tripinfo id="south4219_156" depart="72.00" departLane="620377506_0" departPos="5.10" departSpeed="0.00" departDelay="2.00" arrival="89.00" arrivalLane="547625725_0" arrivalPos="73.62" arrivalSpeed="29.09" duration="17.00" routeLength="287.99" waitingTime="0.00" waitingCount="0" stopTime="0.00" timeLoss="11.62" rerouteNo="0" devices="tripinfo_south4219_156" vType="DEFAULT_VEHTYPE" speedFactor="1.18" vaporized=""/>
    <tripinfo id="4235e4221n_12" depart="17.00" departLane="619523290#0_0" departPos="5.10" departSpeed="0.00" departDelay="13.00" arrival="90.00" arrivalLane="28594060#4_0" arrivalPos="123.22" arrivalSpeed="40.75" duration="73.00" routeLength="1589.88" waitingTime="0.00" waitingCount="0" stopTime="0.00" timeLoss="44.07" rerouteNo="0" devices="tripinfo_4235e4221n_12" vType="DEFAULT_VEHTYPE" speedFactor="1.05" vaporized=""/>
    <tripinfo id="north4221_19" depart="9.00" departLane="-620463733_0" departPos="5.10" departSpeed="0.00" departDelay="0.00" arrival="96.00" arrivalLane="28594060#4_1" arrivalPos="123.22" arrivalSpeed="44.56" duration="87.00" routeLength="979.20" waitingTime="33.00" waitingCount="1" stopTime="0.00" timeLoss="68.86" rerouteNo="0" devices="tripinfo_north4221_19" vType="DEFAULT_VEHTYPE" speedFactor="1.16" vaporized=""/>
    <tripinfo id="4235e4219n_39" depart="56.00" departLane="619523290#0_0" departPos="5.10" departSpeed="0.00" departDelay="37.00" arrival="96.00" arrivalLane="620377501#0_0" arrivalPos="20.24" arrivalSpeed="26.01" duration="40.00" routeLength="798.42" waitingTime="0.00" waitingCount="0" stopTime="0.00" timeLoss="24.43" rerouteNo="0" devices="tripinfo_4235e4219n_39" vType="DEFAULT_VEHTYPE" speedFactor="0.90" vaporized=""/>
    <tripinfo id="north4219_28" depart="16.00" departLane="620377515_0" departPos="5.10" departSpeed="0.00" departDelay="1.00" arrival="98.00" arrivalLane="620377501#0_1" arrivalPos="20.24" arrivalSpeed="26.03" duration="82.00" routeLength="301.34" waitingTime="55.00" waitingCount="1" stopTime="0.00" timeLoss="76.23" rerouteNo="0" devices="tripinfo_north4219_28" vType="DEFAULT_VEHTYPE" speedFactor="1.13" vaporized=""/>
    <tripinfo id="north4219_38" depart="23.00" departLane="620377515_0" departPos="5.10" departSpeed="0.00" departDelay="5.00" arrival="98.00" arrivalLane="620377501#0_2" arrivalPos="20.24" arrivalSpeed="25.57" duration="75.00" routeLength="301.34" waitingTime="47.00" waitingCount="1" stopTime="0.00" timeLoss="69.45" rerouteNo="0" devices="tripinfo_north4219_38" vType="DEFAULT_VEHTYPE" speedFactor="1.10" vaporized=""/>
    <tripinfo id="north4221_60" depart="31.00" departLane="-620463733_0" departPos="5.10" departSpeed="0.00" departDelay="5.00" arrival="98.00" arrivalLane="28594060#4_1" arrivalPos="123.22" arrivalSpeed="43.13" duration="67.00" routeLength="979.20" waitingTime="12.00" waitingCount="1" stopTime="0.00" timeLoss="49.04" rerouteNo="0" devices="tripinfo_north4221_60" vType="DEFAULT_VEHTYPE" speedFactor="1.08" vaporized=""/>
    <tripinfo id="north4221_7" depart="2.00" departLane="-620463733_0" departPos="5.10" departSpeed="0.00" departDelay="0.00" arrival="99.00" arrivalLane="28594060#4_0" arrivalPos="123.22" arrivalSpeed="43.06" duration="97.00" routeLength="979.20" waitingTime="40.00" waitingCount="1" stopTime="0.00" timeLoss="78.09" rerouteNo="0" devices="tripinfo_north4221_7" vType="DEFAULT_VEHTYPE" speedFactor="0.89" vaporized=""/>
    <tripinfo id="north4219_50" depart="26.00" departLane="620377515_0" departPos="5.10" departSpeed="0.00" departDelay="3.00" arrival="100.00" arrivalLane="620377501#0_1" arrivalPos="20.24" arrivalSpeed="28.68" duration="74.00" routeLength="301.34" waitingTime="46.00" waitingCount="1" stopTime="0.00" timeLoss="67.61" rerouteNo="0" devices="tripinfo_north4219_50" vType="DEFAULT_VEHTYPE" speedFactor="0.85" vaporized=""/>
    <tripinfo id="north4219_54" depart="29.00" departLane="620377515_0" departPos="5.10" departSpeed="0.00" departDelay="4.00" arrival="100.00" arrivalLane="620377501#0_2" arrivalPos="20.24" arrivalSpeed="28.15" duration="71.00" routeLength="301.34" waitingTime="43.00" waitingCount="1" stopTime="0.00" timeLoss="65.15" rerouteNo="0" devices="tripinfo_north4219_54" vType="DEFAULT_VEHTYPE" speedFactor="1.00" vaporized=""/>
    <tripinfo id="north4219_66" depart="32.00" departLane="620377515_0" departPos="5.10" departSpeed="0.00" departDelay="4.00" arrival="101.00" arrivalLane="620377501#0_1" arrivalPos="20.24" arrivalSpeed="27.01" duration="69.00" routeLength="301.34" waitingTime="41.00" waitingCount="1" stopTime="0.00" timeLoss="63.14" rerouteNo="0" devices="tripinfo_north4219_66" vType="DEFAULT_VEHTYPE" speedFactor="0.91" vaporized=""/>
    <tripinfo id="north4221_68" depart="37.00" departLane="-620463733_0" departPos="5.10" departSpeed="0.00" departDelay="6.00" arrival="101.00" arrivalLane="28594060#4_1" arrivalPos="123.22" arrivalSpeed="42.48" duration="64.00" routeLength="979.20" waitingTime="5.00" waitingCount="1" stopTime="0.00" timeLoss="45.84" rerouteNo="0" devices="tripinfo_north4221_68" vType="DEFAULT_VEHTYPE" speedFactor="1.04" vaporized=""/>
    <tripinfo id="north4219_77" depart="36.00" departLane="620377515_0" departPos="5.10" departSpeed="0.00" departDelay="0.00" arrival="101.00" arrivalLane="620377501#0_2" arrivalPos="20.24" arrivalSpeed="26.61" duration="65.00" routeLength="301.34" waitingTime="36.00" waitingCount="1" stopTime="0.00" timeLoss="59.41" rerouteNo="0" devices="tripinfo_north4219_77" vType="DEFAULT_VEHTYPE" speedFactor="0.98" vaporized=""/>
    <tripinfo id="south4221_118" depart="51.00" departLane="-28594060#4_0" departPos="5.10" departSpeed="0.00" departDelay="0.00" arrival="101.00" arrivalLane="620463733_0" arrivalPos="133.76" arrivalSpeed="38.67" duration="50.00" routeLength="972.31" waitingTime="0.00" waitingCount="0" stopTime="0.00" timeLoss="31.89" rerouteNo="0" devices="tripinfo_south4221_118" vType="DEFAULT_VEHTYPE" speedFactor="0.99" vaporized=""/>
    <tripinfo id="north4221_25" depart="13.00" departLane="-620463733_0" departPos="5.10" departSpeed="0.00" departDelay="0.00" arrival="102.00" arrivalLane="28594060#4_0" arrivalPos="123.22" arrivalSpeed="41.35" duration="89.00" routeLength="979.20" waitingTime="30.00" waitingCount="1" stopTime="0.00" timeLoss="69.38" rerouteNo="0" devices="tripinfo_north4221_25" vType="DEFAULT_VEHTYPE" speedFactor="0.87" vaporized=""/>
    <tripinfo id="south4221_122" depart="54.00" departLane="-28594060#4_0" departPos="5.10" departSpeed="0.00" departDelay="0.00" arrival="102.00" arrivalLane="620463733_0" arrivalPos="133.76" arrivalSpeed="36.57" duration="48.00" routeLength="972.31" waitingTime="0.00" waitingCount="0" stopTime="0.00" timeLoss="30.47" rerouteNo="0" devices="tripinfo_south4221_122" vType="DEFAULT_VEHTYPE" speedFactor="1.03" vaporized=""/>
    <tripinfo id="north4221_62" depart="34.00" departLane="-620463733_0" departPos="5.10" departSpeed="0.00" departDelay="7.00" arrival="103.00" arrivalLane="28594060#4_0" arrivalPos="123.22" arrivalSpeed="40.40" duration="69.00" routeLength="979.20" waitingTime="11.00" waitingCount="1" stopTime="0.00" timeLoss="50.81" rerouteNo="0" devices="tripinfo_north4221_62" vType="DEFAULT_VEHTYPE" speedFactor="1.02" vaporized=""/>
    <tripinfo id="north4221_85" depart="43.00" departLane="-620463733_0" departPos="5.10" departSpeed="0.00" departDelay="5.00" arrival="103.00" arrivalLane="28594060#4_1" arrivalPos="123.22" arrivalSpeed="41.88" duration="60.00" routeLength="979.20" waitingTime="0.00" waitingCount="0" stopTime="0.00" timeLoss="41.95" rerouteNo="0" devices="tripinfo_north4221_85" vType="DEFAULT_VEHTYPE" speedFactor="0.98" vaporized=""/>
    <tripinfo id="north4219_91" depart="40.00" departLane="620377515_0" departPos="5.10" departSpeed="0.00" departDelay="0.00" arrival="103.00" arrivalLane="620377501#0_1" arrivalPos="20.24" arrivalSpeed="27.29" duration="63.00" routeLength="301.34" waitingTime="34.00" waitingCount="1" stopTime="0.00" timeLoss="57.13" rerouteNo="0" devices="tripinfo_north4219_91" vType="DEFAULT_VEHTYPE" speedFactor="0.89" vaporized=""/>
    <tripinfo id="north4219_104" depart="44.00" departLane="620377515_0" departPos="5.10" departSpeed="0.00" departDelay="0.00" arrival="103.00" arrivalLane="620377501#0_2" arrivalPos="20.24" arrivalSpeed="28.68" duration="59.00" routeLength="301.34" waitingTime="30.00" waitingCount="1" stopTime="0.00" timeLoss="52.95" rerouteNo="0" devices="tripinfo_north4219_104" vType="DEFAULT_VEHTYPE" speedFactor="0.89" vaporized=""/>
    <tripinfo id="south4221_130" depart="57.00" departLane="-28594060#4_0" departPos="5.10" departSpeed="0.00" departDelay="0.00" arrival="104.00" arrivalLane="620463733_0" arrivalPos="133.76" arrivalSpeed="37.71" duration="47.00" routeLength="972.31" waitingTime="0.00" waitingCount="0" stopTime="0.00" timeLoss="29.07" rerouteNo="0" devices="tripinfo_south4221_130" vType="DEFAULT_VEHTYPE" speedFactor="1.03" vaporized=""/>
    <tripinfo id="north4219_172" depart="78.00" departLane="620377515_0" departPos="5.10" departSpeed="0.00" departDelay="0.00" arrival="104.00" arrivalLane="620377501#0_2" arrivalPos="20.24" arrivalSpeed="27.08" duration="26.00" routeLength="301.34" waitingTime="0.00" waitingCount="0" stopTime="0.00" timeLoss="20.24" rerouteNo="0" devices="tripinfo_north4219_172" vType="DEFAULT_VEHTYPE" speedFactor="0.89" vaporized=""/>
    <tripinfo id="north4221_72" depart="40.00" departLane="-620463733_0" departPos="5.10" departSpeed="0.00" departDelay="8.00" arrival="105.00" arrivalLane="28594060#4_0" arrivalPos="123.22" arrivalSpeed="37.51" duration="65.00" routeLength="979.20" waitingTime="5.00" waitingCount="1" stopTime="0.00" timeLoss="46.06" rerouteNo="0" devices="tripinfo_north4221_72" vType="DEFAULT_VEHTYPE" speedFactor="0.94" vaporized=""/>
    <tripinfo id="north4221_111" depart="52.00" departLane="-620463733_0" departPos="5.10" departSpeed="0.00" departDelay="6.00" arrival="105.00" arrivalLane="28594060#4_1" arrivalPos="123.22" arrivalSpeed="43.86" duration="53.00" routeLength="979.20" waitingTime="0.00" waitingCount="0" stopTime="0.00" timeLoss="33.34" rerouteNo="0" devices="tripinfo_north4221_111" vType="DEFAULT_VEHTYPE" speedFactor="0.87" vaporized=""/>
    <tripinfo id="north4219_168" depart="75.00" departLane="620377515_0" departPos="5.10" departSpeed="0.00" departDelay="0.00" arrival="105.00" arrivalLane="620377501#0_1" arrivalPos="20.24" arrivalSpeed="26.52" duration="30.00" routeLength="301.34" waitingTime="1.00" waitingCount="1" stopTime="0.00" timeLoss="24.29" rerouteNo="0" devices="tripinfo_north4219_168" vType="DEFAULT_VEHTYPE" speedFactor="0.98" vaporized=""/>
    <tripinfo id="north4221_117" depart="58.00" departLane="-620463733_0" departPos="5.10" departSpeed="0.00" departDelay="7.00" arrival="107.00" arrivalLane="28594060#4_1" arrivalPos="123.22" arrivalSpeed="43.24" duration="49.00" routeLength="979.20" waitingTime="0.00" waitingCount="0" stopTime="0.00" timeLoss="30.78" rerouteNo="0" devices="tripinfo_north4221_117" vType="DEFAULT_VEHTYPE" speedFactor="1.00" vaporized=""/>
    <tripinfo id="north4219_181" depart="83.00" departLane="620377515_0" departPos="5.10" departSpeed="0.00" departDelay="0.00" arrival="107.00" arrivalLane="620377501#0_1" arrivalPos="20.24" arrivalSpeed="28.48" duration="24.00" routeLength="301.34" waitingTime="0.00" waitingCount="0" stopTime="0.00" timeLoss="18.08" rerouteNo="0" devices="tripinfo_north4219_181" vType="DEFAULT_VEHTYPE" speedFactor="1.03" vaporized=""/>
    <tripinfo id="north4221_89" depart="49.00" departLane="-620463733_0" departPos="5.10" departSpeed="0.00" departDelay="10.00" arrival="108.00" arrivalLane="28594060#4_0" arrivalPos="123.22" arrivalSpeed="42.00" duration="59.00" routeLength="979.20" waitingTime="0.00" waitingCount="0" stopTime="0.00" timeLoss="39.92" rerouteNo="0" devices="tripinfo_north4221_89" vType="DEFAULT_VEHTYPE" speedFactor="1.02" vaporized=""/>
    <tripinfo id="north4221_134" depart="64.00" departLane="-620463733_0" departPos="5.10" departSpeed="0.00" departDelay="5.00" arrival="109.00" arrivalLane="28594060#4_1" arrivalPos="123.22" arrivalSpeed="44.12" duration="45.00" routeLength="979.20" waitingTime="0.00" waitingCount="0" stopTime="0.00" timeLoss="25.99" rerouteNo="0" devices="tripinfo_north4221_134" vType="DEFAULT_VEHTYPE" speedFactor="1.23" vaporized=""/>
    <tripinfo id="north4221_127" depart="61.00" departLane="-620463733_0" departPos="5.10" departSpeed="0.00" departDelay="5.00" arrival="111.00" arrivalLane="28594060#4_0" arrivalPos="123.22" arrivalSpeed="42.65" duration="50.00" routeLength="979.20" waitingTime="0.00" waitingCount="0" stopTime="0.00" timeLoss="28.81" rerouteNo="0" devices="tripinfo_north4221_127" vType="DEFAULT_VEHTYPE" speedFactor="0.82" vaporized=""/>
    <tripinfo id="4221n4219s_40" depart="20.00" departLane="-620463733_0" departPos="5.10" departSpeed="0.00" departDelay="0.00" arrival="113.00" arrivalLane="547625725_0" arrivalPos="73.62" arrivalSpeed="20.26" duration="93.00" routeLength="724.15" waitingTime="36.00" waitingCount="1" stopTime="0.00" timeLoss="74.00" rerouteNo="0" devices="tripinfo_4221n4219s_40" vType="DEFAULT_VEHTYPE" speedFactor="1.03" vaporized=""/>
    <tripinfo id="4235e4219n_42" depart="59.00" departLane="619523290#0_0" departPos="5.10" departSpeed="0.00" departDelay="38.00" arrival="113.00" arrivalLane="620377501#0_0" arrivalPos="20.24" arrivalSpeed="23.66" duration="54.00" routeLength="798.42" waitingTime="9.00" waitingCount="1" stopTime="0.00" timeLoss="39.12" rerouteNo="0" devices="tripinfo_4235e4219n_42" vType="DEFAULT_VEHTYPE" speedFactor="1.09" vaporized=""/>
    <tripinfo id="4235e4219n_47" depart="68.00" departLane="619523290#0_0" departPos="5.10" departSpeed="0.00" departDelay="46.00" arrival="113.00" arrivalLane="620377501#0_1" arrivalPos="20.24" arrivalSpeed="22.37" duration="45.00" routeLength="798.42" waitingTime="1.00" waitingCount="1" stopTime="0.00" timeLoss="29.71" rerouteNo="0" devices="tripinfo_4235e4219n_47" vType="DEFAULT_VEHTYPE" speedFactor="0.90" vaporized=""/>
    <tripinfo id="se4221_153" depart="67.00" departLane="-28594060#4_0" departPos="5.10" departSpeed="0.00" departDelay="0.00" arrival="114.00" arrivalLane="28573015#6_0" arrivalPos="68.82" arrivalSpeed="38.65" duration="47.00" routeLength="1000.38" waitingTime="0.00" waitingCount="0" stopTime="0.00" timeLoss="28.14" rerouteNo="0" devices="tripinfo_se4221_153" vType="DEFAULT_VEHTYPE" speedFactor="0.93" vaporized=""/>
    <tripinfo id="4235e4219n_53" depart="79.00" departLane="619523290#0_0" departPos="5.10" departSpeed="0.00" departDelay="55.00" arrival="120.00" arrivalLane="620377501#0_0" arrivalPos="20.24" arrivalSpeed="25.05" duration="41.00" routeLength="798.42" waitingTime="0.00" waitingCount="0" stopTime="0.00" timeLoss="26.07" rerouteNo="0" devices="tripinfo_4235e4219n_53" vType="DEFAULT_VEHTYPE" speedFactor="1.10" vaporized=""/>
    <tripinfo id="south4220_14" depart="6.00" departLane="gneE10_0" departPos="5.10" departSpeed="0.00" departDelay="0.00" arrival="122.00" arrivalLane="gneE41_0" arrivalPos="28.67" arrivalSpeed="13.19" duration="116.00" routeLength="130.35" waitingTime="94.00" waitingCount="2" stopTime="0.00" timeLoss="108.58" rerouteNo="0" devices="tripinfo_south4220_14" vType="DEFAULT_VEHTYPE" speedFactor="0.99" vaporized=""/>
    <tripinfo id="4235e4219n_56" depart="82.00" departLane="619523290#0_0" departPos="5.10" departSpeed="0.00" departDelay="57.00" arrival="122.00" arrivalLane="620377501#0_0" arrivalPos="20.24" arrivalSpeed="24.53" duration="40.00" routeLength="798.42" waitingTime="0.00" waitingCount="0" stopTime="0.00" timeLoss="24.74" rerouteNo="0" devices="tripinfo_4235e4219n_56" vType="DEFAULT_VEHTYPE" speedFactor="0.90" vaporized=""/>
    <tripinfo id="4235e4219n_63" depart="85.00" departLane="619523290#0_0" departPos="5.10" departSpeed="0.00" departDelay="58.00" arrival="126.00" arrivalLane="620377501#0_0" arrivalPos="20.24" arrivalSpeed="23.30" duration="41.00" routeLength="798.42" waitingTime="0.00" waitingCount="0" stopTime="0.00" timeLoss="25.94" rerouteNo="0" devices="tripinfo_4235e4219n_63" vType="DEFAULT_VEHTYPE" speedFactor="0.99" vaporized=""/>