<?xml version="1.0" encoding="UTF-8"?>

<!-- generated on 04/17/20 19:43:52 by Eclipse SUMO GUI Version 1.5.0
<configuration xmlns:xsi="http://www.w3.org/2001/XMLSchema-instance" xsi:noNamespaceSchemaLocation="http://sumo.dlr.de/xsd/sumoConfiguration.xsd">

    <input>
        <net-file value="data/osm.net.xml"/>
        <route-files value="data/osm.rou.xml"/>
        <additional-files value="data/osm.det.xml"/>
    </input>

    <output>
        <tripinfo-output value="tripinfo.xml"/>
    </output>

    <time>
        <begin value="0"/>
    </time>

    <report>
        <verbose value="true"/>
        <no-step-log value="true"/>
    </report>

    <traci_server>
        <remote-port value="54776"/>
    </traci_server>

</configuration>
-->

<tripinfos xmlns:xsi="http://www.w3.org/2001/XMLSchema-instance" xsi:noNamespaceSchemaLocation="http://sumo.dlr.de/xsd/tripinfo_file.xsd">
    <tripinfo id="4" depart="4.00" departLane="-628341438#1_0" departPos="5.10" departSpeed="0.00" departDelay="0.00" arrival="14.00" arrivalLane="gneE6_0" arrivalPos="13.52" arrivalSpeed="13.46" duration="10.00" routeLength="82.90" waitingTime="0.00" waitingCount="0" stopTime="0.00" timeLoss="3.43" rerouteNo="0" devices="tripinfo_4" vType="DEFAULT_VEHTYPE" speedFactor="1.06" vaporized=""/>
    <tripinfo id="8" depart="8.00" departLane="-28573015#6_0" departPos="5.10" departSpeed="0.00" departDelay="0.00" arrival="54.00" arrivalLane="112543664_0" arrivalPos="35.24" arrivalSpeed="17.15" duration="46.00" routeLength="572.88" waitingTime="0.00" waitingCount="0" stopTime="0.00" timeLoss="8.95" rerouteNo="0" devices="tripinfo_8" vType="DEFAULT_VEHTYPE" speedFactor="1.08" vaporized=""/>
    <tripinfo id="27" depart="27.00" departLane="-28573015#6_0" departPos="5.10" departSpeed="0.00" departDelay="0.00" arrival="62.00" arrivalLane="28573025_0" arrivalPos="42.82" arrivalSpeed="11.53" duration="35.00" routeLength="360.34" waitingTime="0.00" waitingCount="0" stopTime="0.00" timeLoss="4.14" rerouteNo="0" devices="tripinfo_27" vType="DEFAULT_VEHTYPE" speedFactor="0.86" vaporized=""/>
    <tripinfo id="60" depart="60.00" departLane="-112543664_0" departPos="5.10" departSpeed="0.00" departDelay="0.00" arrival="65.00" arrivalLane="-112543664_0" arrivalPos="35.24" arrivalSpeed="9.50" duration="5.00" routeLength="30.14" waitingTime="0.00" waitingCount="0" stopTime="0.00" timeLoss="2.76" rerouteNo="0" devices="tripinfo_60" vType="DEFAULT_VEHTYPE" speedFactor="0.83" vaporized=""/>
    <tripinfo id="45" depart="45.00" departLane="619523290#1_0" departPos="5.10" departSpeed="0.00" departDelay="0.00" arrival="71.00" arrivalLane="628341438#1_0" arrivalPos="36.44" arrivalSpeed="12.71" duration="26.00" routeLength="222.48" waitingTime="0.00" waitingCount="0" stopTime="0.00" timeLoss="9.35" rerouteNo="0" devices="tripinfo_45" vType="DEFAULT_VEHTYPE" speedFactor="0.94" vaporized=""/>
    <tripinfo id="10" depart="10.00" departLane="-28594060#3_0" departPos="5.10" departSpeed="0.00" departDelay="0.00" arrival="73.00" arrivalLane="547625725_0" arrivalPos="73.62" arrivalSpeed="19.91" duration="63.00" routeLength="908.22" waitingTime="0.00" waitingCount="0" stopTime="0.00" timeLoss="11.31" rerouteNo="0" devices="tripinfo_10" vType="DEFAULT_VEHTYPE" speedFactor="1.03" vaporized=""/>
    <tripinfo id="34" depart="34.00" departLane="-628341438#1_0" departPos="5.10" departSpeed="0.00" departDelay="0.00" arrival="74.00" arrivalLane="gneE1_0" arrivalPos="8.46" arrivalSpeed="14.83" duration="40.00" routeLength="390.10" waitingTime="6.00" waitingCount="1" stopTime="0.00" timeLoss="16.89" rerouteNo="0" devices="tripinfo_34" vType="DEFAULT_VEHTYPE" speedFactor="1.12" vaporized=""/>
    <tripinfo id="36" depart="37.00" departLane="-628341438#1_0" departPos="5.10" departSpeed="0.00" departDelay="1.00" arrival="92.00" arrivalLane="gneE1.31_0" arrivalPos="30.45" arrivalSpeed="13.60" duration="55.00" routeLength="428.95" waitingTime="13.00" waitingCount="2" stopTime="0.00" timeLoss="25.67" rerouteNo="0" devices="tripinfo_36" vType="DEFAULT_VEHTYPE" speedFactor="0.99" vaporized=""/>
    <tripinfo id="22" depart="22.00" departLane="-620463733_0" departPos="5.10" departSpeed="0.00" departDelay="0.00" arrival="94.00" arrivalLane="28573015#6_0" arrivalPos="68.82" arrivalSpeed="12.43" duration="72.00" routeLength="769.98" waitingTime="5.00" waitingCount="1" stopTime="0.00" timeLoss="16.01" rerouteNo="0" devices="tripinfo_22" vType="DEFAULT_VEHTYPE" speedFactor="0.94" vaporized=""/>
    <tripinfo id="17" depart="17.00" departLane="620377506_0" departPos="5.10" departSpeed="0.00" departDelay="0.00" arrival="106.00" arrivalLane="28594060#4_0" arrivalPos="123.22" arrivalSpeed="14.42" duration="89.00" routeLength="1040.37" waitingTime="0.00" waitingCount="0" stopTime="0.00" timeLoss="16.10" rerouteNo="0" devices="tripinfo_17" vType="DEFAULT_VEHTYPE" speedFactor="0.89" vaporized=""/>
    <tripinfo id="5" depart="5.00" departLane="-28573015#6_0" departPos="5.10" departSpeed="0.00" departDelay="0.00" arrival="108.00" arrivalLane="28594060#1_1" arrivalPos="146.26" arrivalSpeed="15.31" duration="103.00" routeLength="793.76" waitingTime="36.00" waitingCount="1" stopTime="0.00" timeLoss="45.73" rerouteNo="0" devices="tripinfo_5" vType="DEFAULT_VEHTYPE" speedFactor="0.94" vaporized=""/>
    <tripinfo id="48" depart="49.00" departLane="624439645_0" departPos="5.10" departSpeed="0.00" departDelay="1.00" arrival="110.00" arrivalLane="28573015#6_0" arrivalPos="68.82" arrivalSpeed="12.46" duration="61.00" routeLength="575.39" waitingTime="7.00" waitingCount="1" stopTime="0.00" timeLoss="18.07" rerouteNo="0" devices="tripinfo_48" vType="DEFAULT_VEHTYPE" speedFactor="0.94" vaporized=""/>
    <tripinfo id="91" depart="91.00" departLane="-628341438#1_0" departPos="5.10" departSpeed="0.00" departDelay="0.00" arrival="115.00" arrivalLane="619523287#1_0" arrivalPos="83.27" arrivalSpeed="18.53" duration="24.00" routeLength="291.25" waitingTime="0.00" waitingCount="0" stopTime="0.00" timeLoss="8.07" rerouteNo="0" devices="tripinfo_91" vType="DEFAULT_VEHTYPE" speedFactor="1.17" vaporized=""/>
    <tripinfo id="95" depart="95.00" departLane="28573015#2_0" departPos="5.10" departSpeed="0.00" departDelay="0.00" arrival="118.00" arrivalLane="28573015#6_0" arrivalPos="68.82" arrivalSpeed="13.50" duration="23.00" routeLength="250.60" waitingTime="0.00" waitingCount="0" stopTime="0.00" timeLoss="3.65" rerouteNo="0" devices="tripinfo_95" vType="DEFAULT_VEHTYPE" speedFactor="0.97" vaporized=""/>
    <tripinfo id="11" depart="11.00" departLane="547793365_0" departPos="5.10" departSpeed="0.00" departDelay="0.00" arrival="123.00" arrivalLane="122089583#0_0" arrivalPos="50.11" arrivalSpeed="13.63" duration="112.00" routeLength="404.11" waitingTime="66.00" waitingCount="2" stopTime="0.00" timeLoss="81.91" rerouteNo="0" devices="tripinfo_11" vType="DEFAULT_VEHTYPE" speedFactor="0.83" vaporized=""/>
    <tripinfo id="7" depart="7.00" departLane="-620377511_0" departPos="5.10" departSpeed="0.00" departDelay="0.00" arrival="125.00" arrivalLane="620377501#0_1" arrivalPos="20.24" arrivalSpeed="16.70" duration="118.00" routeLength="673.18" waitingTime="55.00" waitingCount="2" stopTime="0.00" timeLoss="76.14" rerouteNo="0" devices="tripinfo_7" vType="DEFAULT_VEHTYPE" speedFactor="1.01" vaporized=""/>
    <tripinfo id="29" depart="29.00" departLane="-28594060#4_0" departPos="5.10" departSpeed="0.00" departDelay="0.00" arrival="126.00" arrivalLane="620377501#0_2" arrivalPos="20.24" arrivalSpeed="17.90" duration="97.00" routeLength="1109.72" waitingTime="17.00" waitingCount="1" stopTime="0.00" timeLoss="34.22" rerouteNo="0" devices="tripinfo_29" vType="DEFAULT_VEHTYPE" speedFactor="1.09" vaporized=""/>
    <tripinfo id="101" depart="101.00" departLane="-628341438#1_0" departPos="5.10" departSpeed="0.00" departDelay="0.00" arrival="126.00" arrivalLane="619526570#1_1" arrivalPos="60.98" arrivalSpeed="16.63" duration="25.00" routeLength="176.64" waitingTime="5.00" waitingCount="1" stopTime="0.00" timeLoss="13.10" rerouteNo="0" devices="tripinfo_101" vType="DEFAULT_VEHTYPE" speedFactor="1.03" vaporized=""/>
    <tripinfo id="92" depart="92.00" departLane="620377515_0" departPos="5.10" departSpeed="0.00" departDelay="0.00" arrival="130.00" arrivalLane="628341438#1_0" arrivalPos="36.44" arrivalSpeed="13.32" duration="38.00" routeLength="475.71" waitingTime="0.00" waitingCount="0" stopTime="0.00" timeLoss="10.17" rerouteNo="0" devices="tripinfo_92" vType="DEFAULT_VEHTYPE" speedFactor="0.99" vaporized=""/>
    <tripinfo id="104" depart="104.00" departLane="28592666_0" departPos="5.10" departSpeed="0.00" departDelay="0.00" arrival="133.00" arrivalLane="628341438#1_0" arrivalPos="36.44" arrivalSpeed="13.43" duration="29.00" routeLength="379.85" waitingTime="0.00" waitingCount="0" stopTime="0.00" timeLoss="6.88" rerouteNo="0" devices="tripinfo_104" vType="DEFAULT_VEHTYPE" speedFactor="1.04" vaporized=""/>
    <tripinfo id="59" depart="59.00" departLane="-28594060#4_0" departPos="5.10" departSpeed="0.00" departDelay="0.00" arrival="135.00" arrivalLane="28573015#5_0" arrivalPos="25.88" arrivalSpeed="11.40" duration="76.00" routeLength="931.30" waitingTime="0.00" waitingCount="0" stopTime="0.00" timeLoss="9.01" rerouteNo="0" devices="tripinfo_59" vType="DEFAULT_VEHTYPE" speedFactor="0.89" vaporized=""/>
    <tripinfo id="54" depart="54.00" departLane="620377506_0" departPos="5.10" departSpeed="0.00" departDelay="0.00" arrival="138.00" arrivalLane="620377510_0" arrivalPos="31.60" arrivalSpeed="15.71" duration="84.00" routeLength="652.60" waitingTime="29.00" waitingCount="1" stopTime="0.00" timeLoss="43.58" rerouteNo="0" devices="tripinfo_54" vType="DEFAULT_VEHTYPE" speedFactor="1.02" vaporized=""/>
    <tripinfo id="69" depart="69.00" departLane="-28573015#6_0" departPos="5.10" departSpeed="0.00" departDelay="0.00" arrival="141.00" arrivalLane="669665015#1_1" arrivalPos="107.91" arrivalSpeed="18.18" duration="72.00" routeLength="611.50" waitingTime="24.00" waitingCount="1" stopTime="0.00" timeLoss="34.15" rerouteNo="0" devices="tripinfo_69" vType="DEFAULT_VEHTYPE" speedFactor="1.13" vaporized=""/>
    <tripinfo id="97" depart="97.00" departLane="-28594060#4_0" departPos="5.10" departSpeed="0.00" departDelay="0.00" arrival="146.00" arrivalLane="28573015#0_0" arrivalPos="9.75" arrivalSpeed="16.19" duration="49.00" routeLength="686.49" waitingTime="0.00" waitingCount="0" stopTime="0.00" timeLoss="12.87" rerouteNo="0" devices="tripinfo_97" vType="DEFAULT_VEHTYPE" speedFactor="1.18" vaporized=""/>
    <tripinfo id="124" depart="126.00" departLane="620377518_0" departPos="5.10" departSpeed="0.00" departDelay="2.00" arrival="150.00" arrivalLane="669665015#1_0" arrivalPos="107.91" arrivalSpeed="18.75" duration="24.00" routeLength="304.84" waitingTime="0.00" waitingCount="0" stopTime="0.00" timeLoss="7.78" rerouteNo="0" devices="tripinfo_124" vType="DEFAULT_VEHTYPE" speedFactor="1.17" vaporized=""/>
    <tripinfo id="68" depart="68.00" departLane="620377517_0" departPos="5.10" departSpeed="0.00" departDelay="0.00" arrival="157.00" arrivalLane="28573015#6_0" arrivalPos="68.82" arrivalSpeed="13.08" duration="89.00" routeLength="675.20" waitingTime="29.00" waitingCount="1" stopTime="0.00" timeLoss="40.85" rerouteNo="0" devices="tripinfo_68" vType="DEFAULT_VEHTYPE" speedFactor="0.95" vaporized=""/>
    <tripinfo id="56" depart="56.00" departLane="619526567_0" departPos="5.10" departSpeed="0.00" departDelay="0.00" arrival="165.00" arrivalLane="669665015#1_0" arrivalPos="107.91" arrivalSpeed="15.52" duration="109.00" routeLength="582.67" waitingTime="53.00" waitingCount="1" stopTime="0.00" timeLoss="72.30" rerouteNo="0" devices="tripinfo_56" vType="DEFAULT_VEHTYPE" speedFactor="0.98" vaporized=""/>
    <tripinfo id="94" depart="94.00" departLane="-28594060#4_0" departPos="5.10" departSpeed="0.00" departDelay="0.00" arrival="167.00" arrivalLane="28573015#6_0" arrivalPos="68.82" arrivalSpeed="13.60" duration="73.00" routeLength="1000.38" waitingTime="0.00" waitingCount="0" stopTime="0.00" timeLoss="9.81" rerouteNo="0" devices="tripinfo_94" vType="DEFAULT_VEHTYPE" speedFactor="1.02" vaporized=""/>
    <tripinfo id="161" depart="161.00" departLane="112543664_0" departPos="5.10" departSpeed="0.00" departDelay="0.00" arrival="168.00" arrivalLane="620377510_0" arrivalPos="31.60" arrivalSpeed="15.57" duration="7.00" routeLength="61.84" waitingTime="0.00" waitingCount="0" stopTime="0.00" timeLoss="3.30" rerouteNo="0" devices="tripinfo_161" vType="DEFAULT_VEHTYPE" speedFactor="1.02" vaporized=""/>
    <tripinfo id="141" depart="141.00" departLane="620377515_0" departPos="5.10" departSpeed="0.00" departDelay="0.00" arrival="169.00" arrivalLane="122089583#1-AddedOffRampEdge_0" arrivalPos="86.81" arrivalSpeed="15.09" duration="28.00" routeLength="329.74" waitingTime="0.00" waitingCount="0" stopTime="0.00" timeLoss="9.42" rerouteNo="0" devices="tripinfo_141" vType="DEFAULT_VEHTYPE" speedFactor="0.97" vaporized=""/>
    <tripinfo id="55" depart="55.00" departLane="-28594060#4_0" departPos="5.10" departSpeed="0.00" departDelay="0.00" arrival="170.00" arrivalLane="547625725_0" arrivalPos="73.62" arrivalSpeed="18.62" duration="115.00" routeLength="1031.75" waitingTime="31.00" waitingCount="2" stopTime="0.00" timeLoss="55.60" rerouteNo="0" devices="tripinfo_55" vType="DEFAULT_VEHTYPE" speedFactor="1.01" vaporized=""/>
    <tripinfo id="146" depart="146.00" departLane="620377506_0" departPos="5.10" departSpeed="0.00" departDelay="0.00" arrival="170.00" arrivalLane="620377517.54_0" arrivalPos="4.03" arrivalSpeed="15.16" duration="24.00" routeLength="258.24" waitingTime="0.00" waitingCount="0" stopTime="0.00" timeLoss="6.49" rerouteNo="0" devices="tripinfo_146" vType="DEFAULT_VEHTYPE" speedFactor="0.99" vaporized=""/>
    <tripinfo id="127" depart="128.00" departLane="28573008_0" departPos="5.10" departSpeed="0.00" departDelay="1.00" arrival="173.00" arrivalLane="547625727_2" arrivalPos="40.04" arrivalSpeed="7.44" duration="45.00" routeLength="394.98" waitingTime="2.00" waitingCount="1" stopTime="0.00" timeLoss="20.86" rerouteNo="0" devices="tripinfo_127" vType="DEFAULT_VEHTYPE" speedFactor="1.02" vaporized=""/>
    <tripinfo id="71" depart="71.00" departLane="620377515_0" departPos="5.10" departSpeed="0.00" departDelay="0.00" arrival="177.00" arrivalLane="28594060#4_0" arrivalPos="123.22" arrivalSpeed="15.15" duration="106.00" routeLength="1061.37" waitingTime="18.00" waitingCount="2" stopTime="0.00" timeLoss="38.77" rerouteNo="0" devices="tripinfo_71" vType="DEFAULT_VEHTYPE" speedFactor="0.93" vaporized=""/>
    <tripinfo id="137" depart="137.00" departLane="619523290#0_0" departPos="5.10" departSpeed="0.00" departDelay="0.00" arrival="180.00" arrivalLane="619526568_0" arrivalPos="38.92" arrivalSpeed="18.14" duration="43.00" routeLength="560.75" waitingTime="0.00" waitingCount="0" stopTime="0.00" timeLoss="13.04" rerouteNo="0" devices="tripinfo_137" vType="DEFAULT_VEHTYPE" speedFactor="1.14" vaporized=""/>
    <tripinfo id="142" depart="142.00" departLane="547793367_0" departPos="0.20" departSpeed="0.00" departDelay="0.00" arrival="187.00" arrivalLane="28594060#4_0" arrivalPos="123.22" arrivalSpeed="17.63" duration="45.00" routeLength="694.91" waitingTime="0.00" waitingCount="0" stopTime="0.00" timeLoss="6.35" rerouteNo="0" devices="tripinfo_142" vType="DEFAULT_VEHTYPE" speedFactor="1.08" vaporized=""/>
    <tripinfo id="178" depart="178.00" departLane="28573015#4_0" departPos="5.10" departSpeed="0.00" departDelay="0.00" arrival="192.00" arrivalLane="28573015#6_0" arrivalPos="68.82" arrivalSpeed="13.44" duration="14.00" routeLength="138.17" waitingTime="0.00" waitingCount="0" stopTime="0.00" timeLoss="3.49" rerouteNo="0" devices="tripinfo_178" vType="DEFAULT_VEHTYPE" speedFactor="0.98" vaporized=""/>
    <tripinfo id="39" depart="39.00" departLane="619523290#0_0" departPos="5.10" departSpeed="0.00" departDelay="0.00" arrival="196.00" arrivalLane="620463733_0" arrivalPos="133.76" arrivalSpeed="14.17" duration="157.00" routeLength="1338.83" waitingTime="44.00" waitingCount="3" stopTime="0.00" timeLoss="69.76" rerouteNo="0" devices="tripinfo_39" vType="DEFAULT_VEHTYPE" speedFactor="0.93" vaporized=""/>
    <tripinfo id="136" depart="136.00" departLane="-620377511_0" departPos="5.10" departSpeed="0.00" departDelay="0.00" arrival="199.00" arrivalLane="28594060#4_0" arrivalPos="123.22" arrivalSpeed="14.93" duration="63.00" routeLength="845.13" waitingTime="0.00" waitingCount="0" stopTime="0.00" timeLoss="6.39" rerouteNo="0" devices="tripinfo_136" vType="DEFAULT_VEHTYPE" speedFactor="0.90" vaporized=""/>
    <tripinfo id="165" depart="165.00" departLane="619523290#0_0" departPos="5.10" departSpeed="0.00" departDelay="0.00" arrival="199.00" arrivalLane="628341438#1_0" arrivalPos="36.44" arrivalSpeed="13.93" duration="34.00" routeLength="412.34" waitingTime="0.00" waitingCount="0" stopTime="0.00" timeLoss="7.58" rerouteNo="0" devices="tripinfo_165" vType="DEFAULT_VEHTYPE" speedFactor="1.02" vaporized=""/>
    <tripinfo id="90" depart="90.00" departLane="620377515_0" departPos="5.10" departSpeed="0.00" departDelay="0.00" arrival="203.00" arrivalLane="28573015#6_0" arrivalPos="68.82" arrivalSpeed="13.16" duration="113.00" routeLength="879.66" waitingTime="28.00" waitingCount="3" stopTime="0.00" timeLoss="56.20" rerouteNo="0" devices="tripinfo_90" vType="DEFAULT_VEHTYPE" speedFactor="1.01" vaporized=""/>
    <tripinfo id="30" depart="30.00" departLane="-28573015#6_0" departPos="5.10" departSpeed="0.00" departDelay="0.00" arrival="204.00" arrivalLane="620377501#0_1" arrivalPos="20.24" arrivalSpeed="16.80" duration="174.00" routeLength="906.39" waitingTime="84.00" waitingCount="4" stopTime="0.00" timeLoss="115.71" rerouteNo="0" devices="tripinfo_30" vType="DEFAULT_VEHTYPE" speedFactor="1.03" vaporized=""/>
    <tripinfo id="109" depart="110.00" departLane="669665011_0" departPos="5.10" departSpeed="0.00" departDelay="1.00" arrival="205.00" arrivalLane="620377502#1_2" arrivalPos="50.61" arrivalSpeed="17.24" duration="95.00" routeLength="609.53" waitingTime="37.00" waitingCount="3" stopTime="0.00" timeLoss="58.49" rerouteNo="0" devices="tripinfo_109" vType="DEFAULT_VEHTYPE" speedFactor="1.04" vaporized=""/>
    <tripinfo id="133" depart="133.00" departLane="624439627_0" departPos="3.19" departSpeed="0.00" departDelay="0.00" arrival="205.00" arrivalLane="620377501#0_2" arrivalPos="20.24" arrivalSpeed="16.52" duration="72.00" routeLength="465.66" waitingTime="25.00" waitingCount="2" stopTime="0.00" timeLoss="42.37" rerouteNo="0" devices="tripinfo_133" vType="DEFAULT_VEHTYPE" speedFactor="1.00" vaporized=""/>
    <tripinfo id="195" depart="195.00" departLane="620377515_0" departPos="5.10" departSpeed="0.00" departDelay="0.00" arrival="214.00" arrivalLane="122089583#1_0" arrivalPos="3.81" arrivalSpeed="18.60" duration="19.00" routeLength="221.37" waitingTime="0.00" waitingCount="0" stopTime="0.00" timeLoss="8.71" rerouteNo="0" devices="tripinfo_195" vType="DEFAULT_VEHTYPE" speedFactor="1.15" vaporized=""/>
    <tripinfo id="103" depart="103.00" departLane="28573025_0" departPos="5.10" departSpeed="0.00" departDelay="0.00" arrival="215.00" arrivalLane="28594060#4_0" arrivalPos="123.22" arrivalSpeed="17.73" duration="112.00" routeLength="722.60" waitingTime="54.00" waitingCount="2" stopTime="0.00" timeLoss="69.92" rerouteNo="0" devices="tripinfo_103" vType="DEFAULT_VEHTYPE" speedFactor="1.09" vaporized=""/>
    <tripinfo id="158" depart="161.00" departLane="547793367_0" departPos="0.20" departSpeed="0.00" departDelay="3.00" arrival="215.00" arrivalLane="28573015#6_0" arrivalPos="68.82" arrivalSpeed="13.72" duration="54.00" routeLength="485.69" waitingTime="8.00" waitingCount="1" stopTime="0.00" timeLoss="19.78" rerouteNo="0" devices="tripinfo_158" vType="DEFAULT_VEHTYPE" speedFactor="1.04" vaporized=""/>
    <tripinfo id="173" depart="173.00" departLane="620377514#1_0" departPos="5.10" departSpeed="0.00" departDelay="0.00" arrival="216.00" arrivalLane="620377517_1" arrivalPos="54.47" arrivalSpeed="15.14" duration="43.00" routeLength="367.83" waitingTime="5.00" waitingCount="1" stopTime="0.00" timeLoss="19.55" rerouteNo="0" devices="tripinfo_173" vType="DEFAULT_VEHTYPE" speedFactor="0.96" vaporized=""/>
    <tripinfo id="52" depart="55.00" departLane="-28573015#1_0" departPos="5.10" departSpeed="0.00" departDelay="3.00" arrival="217.00" arrivalLane="620377494_0" arrivalPos="0.20" arrivalSpeed="11.48" duration="162.00" routeLength="493.62" waitingTime="104.00" waitingCount="4" stopTime="0.00" timeLoss="135.74" rerouteNo="0" devices="tripinfo_52" vType="DEFAULT_VEHTYPE" speedFactor="1.16" vaporized=""/>
    <tripinfo id="110" depart="110.00" departLane="-620463733_0" departPos="5.10" departSpeed="0.00" departDelay="0.00" arrival="217.00" arrivalLane="628341438#1_0" arrivalPos="36.44" arrivalSpeed="14.80" duration="107.00" routeLength="1029.65" waitingTime="24.00" waitingCount="1" stopTime="0.00" timeLoss="49.75" rerouteNo="0" devices="tripinfo_110" vType="DEFAULT_VEHTYPE" speedFactor="1.09" vaporized=""/>
    <tripinfo id="150" depart="150.00" departLane="-28594060#4_0" departPos="5.10" departSpeed="0.00" departDelay="0.00" arrival="219.00" arrivalLane="620463733_0" arrivalPos="133.76" arrivalSpeed="14.94" duration="69.00" routeLength="972.31" waitingTime="0.00" waitingCount="0" stopTime="0.00" timeLoss="6.16" rerouteNo="0" devices="tripinfo_150" vType="DEFAULT_VEHTYPE" speedFactor="0.94" vaporized=""/>
    <tripinfo id="132" depart="140.00" departLane="547793365_0" departPos="5.10" departSpeed="0.00" departDelay="8.00" arrival="220.00" arrivalLane="628341438#1_0" arrivalPos="36.44" arrivalSpeed="13.91" duration="80.00" routeLength="679.84" waitingTime="23.00" waitingCount="1" stopTime="0.00" timeLoss="39.56" rerouteNo="0" devices="tripinfo_132" vType="DEFAULT_VEHTYPE" speedFactor="1.00" vaporized=""/>
    <tripinfo id="145" depart="145.00" departLane="619523290#1_0" departPos="5.10" departSpeed="0.00" departDelay="0.00" arrival="223.00" arrivalLane="620377517.54_2" arrivalPos="4.03" arrivalSpeed="5.23" duration="78.00" routeLength="617.95" waitingTime="16.00" waitingCount="3" stopTime="0.00" timeLoss="41.37" rerouteNo="0" devices="tripinfo_145" vType="DEFAULT_VEHTYPE" speedFactor="1.02" vaporized=""/>
    <tripinfo id="154" depart="154.00" departLane="-112543664_0" departPos="5.10" departSpeed="0.00" departDelay="0.00" arrival="230.00" arrivalLane="28594060#4_0" arrivalPos="123.22" arrivalSpeed="13.62" duration="76.00" routeLength="813.43" waitingTime="7.00" waitingCount="1" stopTime="0.00" timeLoss="19.97" rerouteNo="0" devices="tripinfo_154" vType="DEFAULT_VEHTYPE" speedFactor="0.88" vaporized=""/>
    <tripinfo id="204" depart="204.00" departLane="-28594060#4_0" departPos="5.10" departSpeed="0.00" departDelay="0.00" arrival="238.00" arrivalLane="669665011_0" arrivalPos="20.59" arrivalSpeed="16.08" duration="34.00" routeLength="495.34" waitingTime="0.00" waitingCount="0" stopTime="0.00" timeLoss="5.19" rerouteNo="0" devices="tripinfo_204" vType="DEFAULT_VEHTYPE" speedFactor="1.04" vaporized=""/>
    <tripinfo id="167" depart="167.00" departLane="-28573015#6_0" departPos="5.10" departSpeed="0.00" departDelay="0.00" arrival="242.00" arrivalLane="28594060#0_1" arrivalPos="30.88" arrivalSpeed="14.30" duration="75.00" routeLength="647.27" waitingTime="19.00" waitingCount="1" stopTime="0.00" timeLoss="28.68" rerouteNo="0" devices="tripinfo_167" vType="DEFAULT_VEHTYPE" speedFactor="0.97" vaporized=""/>
    <tripinfo id="98" depart="98.00" departLane="620377506_0" departPos="5.10" departSpeed="0.00" departDelay="0.00" arrival="249.00" arrivalLane="28573015#6_0" arrivalPos="68.82" arrivalSpeed="14.20" duration="151.00" routeLength="858.66" waitingTime="66.00" waitingCount="3" stopTime="0.00" timeLoss="98.01" rerouteNo="0" devices="tripinfo_98" vType="DEFAULT_VEHTYPE" speedFactor="1.10" vaporized=""/>
    <tripinfo id="155" depart="155.00" departLane="-628341438#1_0" departPos="5.10" departSpeed="0.00" departDelay="0.00" arrival="267.00" arrivalLane="159605088_0" arrivalPos="2.14" arrivalSpeed="5.78" duration="112.00" routeLength="737.80" waitingTime="32.00" waitingCount="3" stopTime="0.00" timeLoss="61.23" rerouteNo="0" devices="tripinfo_155" vType="DEFAULT_VEHTYPE" speedFactor="0.91" vaporized=""/>
    <tripinfo id="41" depart="41.00" departLane="-28573015#6_0" departPos="5.10" departSpeed="0.00" departDelay="0.00" arrival="270.00" arrivalLane="547625727_3" arrivalPos="40.04" arrivalSpeed="6.97" duration="229.00" routeLength="716.73" waitingTime="138.00" waitingCount="5" stopTime="0.00" timeLoss="174.04" rerouteNo="0" devices="tripinfo_41" vType="DEFAULT_VEHTYPE" speedFactor="0.88" vaporized=""/>
    <tripinfo id="205" depart="205.00" departLane="-620463733_0" departPos="5.10" departSpeed="0.00" departDelay="0.00" arrival="276.00" arrivalLane="547625725_0" arrivalPos="73.62" arrivalSpeed="21.10" duration="71.00" routeLength="724.09" waitingTime="11.00" waitingCount="1" stopTime="0.00" timeLoss="29.05" rerouteNo="0" devices="tripinfo_205" vType="DEFAULT_VEHTYPE" speedFactor="1.01" vaporized=""/>
    <tripinfo id="100" depart="100.00" departLane="-28573015#6_0" departPos="5.10" departSpeed="0.00" departDelay="0.00" arrival="277.00" arrivalLane="gneE5_0" arrivalPos="18.13" arrivalSpeed="9.25" duration="177.00" routeLength="410.98" waitingTime="122.00" waitingCount="3" stopTime="0.00" timeLoss="143.66" rerouteNo="0" devices="tripinfo_100" vType="DEFAULT_VEHTYPE" speedFactor="0.90" vaporized=""/>
    <tripinfo id="121" depart="121.00" departLane="-628341438#0_0" departPos="5.10" departSpeed="0.00" departDelay="0.00" arrival="277.00" arrivalLane="207149704#1_0" arrivalPos="97.20" arrivalSpeed="14.59" duration="156.00" routeLength="847.23" waitingTime="70.00" waitingCount="3" stopTime="0.00" timeLoss="95.25" rerouteNo="0" devices="tripinfo_121" vType="DEFAULT_VEHTYPE" speedFactor="0.88" vaporized=""/>
    <tripinfo id="215" depart="215.00" departLane="619523290#0_0" departPos="5.10" departSpeed="0.00" departDelay="0.00" arrival="277.00" arrivalLane="gneE1_0" arrivalPos="8.46" arrivalSpeed="13.60" duration="62.00" routeLength="622.47" waitingTime="9.00" waitingCount="1" stopTime="0.00" timeLoss="24.45" rerouteNo="0" devices="tripinfo_215" vType="DEFAULT_VEHTYPE" speedFactor="1.02" vaporized=""/>
    <tripinfo id="129" depart="129.00" departLane="-28594060#4_0" departPos="5.10" departSpeed="0.00" departDelay="0.00" arrival="279.00" arrivalLane="547625725_0" arrivalPos="73.62" arrivalSpeed="19.22" duration="150.00" routeLength="1031.75" waitingTime="58.00" waitingCount="4" stopTime="0.00" timeLoss="95.29" rerouteNo="0" devices="tripinfo_129" vType="DEFAULT_VEHTYPE" speedFactor="1.10" vaporized=""/>
    <tripinfo id="235" depart="235.00" departLane="7635630#0_0" departPos="5.10" departSpeed="0.00" departDelay="0.00" arrival="280.00" arrivalLane="28573015#6_0" arrivalPos="68.82" arrivalSpeed="12.01" duration="45.00" routeLength="491.77" waitingTime="0.00" waitingCount="0" stopTime="0.00" timeLoss="7.30" rerouteNo="0" devices="tripinfo_235" vType="DEFAULT_VEHTYPE" speedFactor="0.91" vaporized=""/>
    <tripinfo id="251" depart="251.00" departLane="-28573015#6_0" departPos="5.10" departSpeed="0.00" departDelay="0.00" arrival="281.00" arrivalLane="-28573015#1_0" arrivalPos="57.91" arrivalSpeed="12.42" duration="30.00" routeLength="307.54" waitingTime="0.00" waitingCount="0" stopTime="0.00" timeLoss="6.39" rerouteNo="0" devices="tripinfo_251" vType="DEFAULT_VEHTYPE" speedFactor="0.95" vaporized=""/>
    <tripinfo id="222" depart="222.00" departLane="619526565_0" departPos="5.10" departSpeed="0.00" departDelay="0.00" arrival="286.00" arrivalLane="122089583#1_0" arrivalPos="3.81" arrivalSpeed="13.61" duration="64.00" routeLength="231.17" waitingTime="35.00" waitingCount="1" stopTime="0.00" timeLoss="46.73" rerouteNo="0" devices="tripinfo_222" vType="DEFAULT_VEHTYPE" speedFactor="0.83" vaporized=""/>
    <tripinfo id="193" depart="193.00" departLane="-620463733_0" departPos="5.10" departSpeed="0.00" departDelay="0.00" arrival="287.00" arrivalLane="122089583#0_0" arrivalPos="50.11" arrivalSpeed="15.67" duration="94.00" routeLength="753.92" waitingTime="23.00" waitingCount="2" stopTime="0.00" timeLoss="48.96" rerouteNo="0" devices="tripinfo_193" vType="DEFAULT_VEHTYPE" speedFactor="1.02" vaporized=""/>
    <tripinfo id="201" depart="201.00" departLane="-28573015#6_0" departPos="5.10" departSpeed="0.00" departDelay="0.00" arrival="287.00" arrivalLane="669665015#1_1" arrivalPos="107.91" arrivalSpeed="15.80" duration="86.00" routeLength="611.50" waitingTime="33.00" waitingCount="1" stopTime="0.00" timeLoss="42.90" rerouteNo="0" devices="tripinfo_201" vType="DEFAULT_VEHTYPE" speedFactor="1.00" vaporized=""/>
    <tripinfo id="284" depart="284.00" departLane="619526565_0" departPos="5.10" departSpeed="0.00" departDelay="0.00" arrival="289.00" arrivalLane="619526565_0" arrivalPos="25.77" arrivalSpeed="9.09" duration="5.00" routeLength="20.67" waitingTime="0.00" waitingCount="0" stopTime="0.00" timeLoss="3.27" rerouteNo="0" devices="tripinfo_284" vType="DEFAULT_VEHTYPE" speedFactor="0.92" vaporized=""/>
    <tripinfo id="176" depart="176.00" departLane="619526570#0_0" departPos="5.10" departSpeed="0.00" departDelay="0.00" arrival="290.00" arrivalLane="620463733_0" arrivalPos="133.76" arrivalSpeed="16.13" duration="114.00" routeLength="998.57" waitingTime="30.00" waitingCount="1" stopTime="0.00" timeLoss="52.17" rerouteNo="0" devices="tripinfo_176" vType="DEFAULT_VEHTYPE" speedFactor="0.98" vaporized=""/>