<?xml version="1.0" encoding="UTF-8"?>

<!-- generated on 07/09/20 00:02:44 by Eclipse SUMO GUI Version 1.5.0
<configuration xmlns:xsi="http://www.w3.org/2001/XMLSchema-instance" xsi:noNamespaceSchemaLocation="http://sumo.dlr.de/xsd/sumoConfiguration.xsd">

    <input>
        <net-file value="data/osm.net.xml"/>
        <route-files value="data/osm.rou.xml"/>
        <additional-files value="data/osm.det.xml"/>
    </input>

    <output>
        <tripinfo-output value="tripinfoEDF.xml"/>
    </output>

    <time>
        <begin value="0"/>
    </time>

    <report>
        <verbose value="true"/>
        <no-step-log value="true"/>
    </report>

    <traci_server>
        <remote-port value="52828"/>
    </traci_server>

</configuration>
-->

<tripinfos xmlns:xsi="http://www.w3.org/2001/XMLSchema-instance" xsi:noNamespaceSchemaLocation="http://sumo.dlr.de/xsd/tripinfo_file.xsd">
    <tripinfo id="nw4235_0" depart="0.00" departLane="-628341438#1_0" departPos="5.10" departSpeed="0.00" departDelay="0.00" arrival="22.00" arrivalLane="619523287#1_0" arrivalPos="83.27" arrivalSpeed="29.34" duration="22.00" routeLength="291.25" waitingTime="0.00" waitingCount="0" stopTime="0.00" timeLoss="14.61" rerouteNo="0" devices="tripinfo_nw4235_0" vType="DEFAULT_VEHTYPE" speedFactor="1.06" vaporized=""/>
    <tripinfo id="north4219_6" depart="2.00" departLane="620377515_0" departPos="5.10" departSpeed="0.00" departDelay="0.00" arrival="23.00" arrivalLane="620377501#0_1" arrivalPos="20.24" arrivalSpeed="30.40" duration="21.00" routeLength="301.34" waitingTime="0.00" waitingCount="0" stopTime="0.00" timeLoss="15.04" rerouteNo="0" devices="tripinfo_north4219_6" vType="DEFAULT_VEHTYPE" speedFactor="1.05" vaporized=""/>
    <tripinfo id="north4219_8" depart="5.00" departLane="620377515_0" departPos="5.10" departSpeed="0.00" departDelay="2.00" arrival="24.00" arrivalLane="620377501#0_1" arrivalPos="20.24" arrivalSpeed="30.04" duration="19.00" routeLength="301.34" waitingTime="0.00" waitingCount="0" stopTime="0.00" timeLoss="13.15" rerouteNo="0" devices="tripinfo_north4219_8" vType="DEFAULT_VEHTYPE" speedFactor="0.94" vaporized=""/>
    <tripinfo id="nw4235_10" depart="4.00" departLane="-628341438#1_0" departPos="5.10" departSpeed="0.00" departDelay="0.00" arrival="27.00" arrivalLane="619523287#1_0" arrivalPos="83.27" arrivalSpeed="28.71" duration="23.00" routeLength="291.25" waitingTime="0.00" waitingCount="0" stopTime="0.00" timeLoss="16.17" rerouteNo="0" devices="tripinfo_nw4235_10" vType="DEFAULT_VEHTYPE" speedFactor="1.09" vaporized=""/>
    <tripinfo id="north4219_24" depart="13.00" departLane="620377515_0" departPos="5.10" departSpeed="0.00" departDelay="0.00" arrival="30.00" arrivalLane="620377501#0_1" arrivalPos="20.24" arrivalSpeed="33.16" duration="17.00" routeLength="301.34" waitingTime="0.00" waitingCount="0" stopTime="0.00" timeLoss="10.83" rerouteNo="0" devices="tripinfo_north4219_24" vType="DEFAULT_VEHTYPE" speedFactor="0.83" vaporized=""/>
    <tripinfo id="south4221_9" depart="3.00" departLane="-28594060#4_0" departPos="5.10" departSpeed="0.00" departDelay="0.00" arrival="35.00" arrivalLane="620463733_0" arrivalPos="133.76" arrivalSpeed="50.95" duration="32.00" routeLength="972.31" waitingTime="0.00" waitingCount="0" stopTime="0.00" timeLoss="12.63" rerouteNo="0" devices="tripinfo_south4221_9" vType="DEFAULT_VEHTYPE" speedFactor="0.86" vaporized=""/>
    <tripinfo id="4235e4219n_1" depart="0.00" departLane="619523290#0_0" departPos="5.10" departSpeed="0.00" departDelay="0.00" arrival="41.00" arrivalLane="620377501#0_0" arrivalPos="20.24" arrivalSpeed="22.60" duration="41.00" routeLength="798.42" waitingTime="0.00" waitingCount="0" stopTime="0.00" timeLoss="26.02" rerouteNo="0" devices="tripinfo_4235e4219n_1" vType="DEFAULT_VEHTYPE" speedFactor="0.94" vaporized=""/>
    <tripinfo id="nw4235_41" depart="21.00" departLane="-628341438#1_0" departPos="5.10" departSpeed="0.00" departDelay="0.00" arrival="44.00" arrivalLane="619523287#1_0" arrivalPos="83.27" arrivalSpeed="29.32" duration="23.00" routeLength="291.25" waitingTime="0.00" waitingCount="0" stopTime="0.00" timeLoss="15.82" rerouteNo="0" devices="tripinfo_nw4235_41" vType="DEFAULT_VEHTYPE" speedFactor="0.96" vaporized=""/>
    <tripinfo id="nw4235_52" depart="24.00" departLane="-628341438#1_0" departPos="5.10" departSpeed="0.00" departDelay="0.00" arrival="47.00" arrivalLane="619523287#1_0" arrivalPos="83.27" arrivalSpeed="28.87" duration="23.00" routeLength="291.25" waitingTime="0.00" waitingCount="0" stopTime="0.00" timeLoss="16.60" rerouteNo="0" devices="tripinfo_nw4235_52" vType="DEFAULT_VEHTYPE" speedFactor="1.02" vaporized=""/>
    <tripinfo id="4219s4221e_20" depart="11.00" departLane="620377506_0" departPos="5.10" departSpeed="0.00" departDelay="2.00" arrival="49.00" arrivalLane="28573015#6_0" arrivalPos="68.82" arrivalSpeed="52.83" duration="38.00" routeLength="858.60" waitingTime="0.00" waitingCount="0" stopTime="0.00" timeLoss="21.62" rerouteNo="0" devices="tripinfo_4219s4221e_20" vType="DEFAULT_VEHTYPE" speedFactor="1.02" vaporized=""/>
    <tripinfo id="se4235_3" depart="6.00" departLane="619523290#0_0" departPos="5.10" departSpeed="0.00" departDelay="5.00" arrival="52.00" arrivalLane="628341438#1_0" arrivalPos="36.44" arrivalSpeed="19.74" duration="46.00" routeLength="412.34" waitingTime="14.00" waitingCount="1" stopTime="0.00" timeLoss="36.70" rerouteNo="0" devices="tripinfo_se4235_3" vType="DEFAULT_VEHTYPE" speedFactor="1.08" vaporized=""/>
    <tripinfo id="nw4235_65" depart="28.00" departLane="-628341438#1_0" departPos="5.10" departSpeed="0.00" departDelay="0.00" arrival="52.00" arrivalLane="619523287#1_0" arrivalPos="83.27" arrivalSpeed="27.91" duration="24.00" routeLength="291.25" waitingTime="0.00" waitingCount="0" stopTime="0.00" timeLoss="16.58" rerouteNo="0" devices="tripinfo_nw4235_65" vType="DEFAULT_VEHTYPE" speedFactor="0.88" vaporized=""/>
    <tripinfo id="se4235_5" depart="11.00" departLane="619523290#0_0" departPos="5.10" departSpeed="0.00" departDelay="9.00" arrival="55.00" arrivalLane="628341438#1_0" arrivalPos="36.44" arrivalSpeed="18.01" duration="44.00" routeLength="412.34" waitingTime="9.00" waitingCount="1" stopTime="0.00" timeLoss="32.92" rerouteNo="0" devices="tripinfo_se4235_5" vType="DEFAULT_VEHTYPE" speedFactor="0.83" vaporized=""/>
    <tripinfo id="4235n4219n_27" depart="13.00" departLane="-628341438#1_0" departPos="5.10" departSpeed="0.00" departDelay="0.00" arrival="57.00" arrivalLane="620377501#0_0" arrivalPos="20.24" arrivalSpeed="23.86" duration="44.00" routeLength="566.05" waitingTime="2.00" waitingCount="1" stopTime="0.00" timeLoss="31.01" rerouteNo="0" devices="tripinfo_4235n4219n_27" vType="DEFAULT_VEHTYPE" speedFactor="0.95" vaporized=""/>
    <tripinfo id="se4235_15" depart="20.00" departLane="619523290#0_0" departPos="5.10" departSpeed="0.00" departDelay="13.00" arrival="58.00" arrivalLane="628341438#1_0" arrivalPos="36.44" arrivalSpeed="17.45" duration="38.00" routeLength="412.34" waitingTime="2.00" waitingCount="1" stopTime="0.00" timeLoss="28.39" rerouteNo="0" devices="tripinfo_se4235_15" vType="DEFAULT_VEHTYPE" speedFactor="0.93" vaporized=""/>
    <tripinfo id="se4235_22" depart="32.00" departLane="619523290#0_0" departPos="5.10" departSpeed="0.00" departDelay="21.00" arrival="60.00" arrivalLane="628341438#1_0" arrivalPos="36.44" arrivalSpeed="19.74" duration="28.00" routeLength="412.34" waitingTime="0.00" waitingCount="0" stopTime="0.00" timeLoss="18.28" rerouteNo="0" devices="tripinfo_se4235_22" vType="DEFAULT_VEHTYPE" speedFactor="0.98" vaporized=""/>
    <tripinfo id="nw4235_93" depart="41.00" departLane="-628341438#1_0" departPos="5.10" departSpeed="0.00" departDelay="0.00" arrival="65.00" arrivalLane="619523287#1_0" arrivalPos="83.27" arrivalSpeed="29.10" duration="24.00" routeLength="291.25" waitingTime="0.00" waitingCount="0" stopTime="0.00" timeLoss="16.05" rerouteNo="0" devices="tripinfo_nw4235_93" vType="DEFAULT_VEHTYPE" speedFactor="0.92" vaporized=""/>
    <tripinfo id="4235e4219n_11" depart="14.00" departLane="619523290#0_0" departPos="5.10" departSpeed="0.00" departDelay="10.00" arrival="72.00" arrivalLane="620377501#0_0" arrivalPos="20.24" arrivalSpeed="25.43" duration="58.00" routeLength="798.42" waitingTime="6.00" waitingCount="1" stopTime="0.00" timeLoss="43.09" rerouteNo="0" devices="tripinfo_4235e4219n_11" vType="DEFAULT_VEHTYPE" speedFactor="1.03" vaporized=""/>
    <tripinfo id="4219s4235w_95" depart="42.00" departLane="620377506_0" departPos="5.10" departSpeed="0.00" departDelay="1.00" arrival="78.00" arrivalLane="619523287#1_2" arrivalPos="83.27" arrivalSpeed="49.66" duration="36.00" routeLength="716.96" waitingTime="1.00" waitingCount="1" stopTime="0.00" timeLoss="20.36" rerouteNo="0" devices="tripinfo_4219s4235w_95" vType="DEFAULT_VEHTYPE" speedFactor="1.06" vaporized=""/>
    <tripinfo id="south4219_18" depart="8.00" departLane="620377506_0" departPos="5.10" departSpeed="0.00" departDelay="0.00" arrival="79.00" arrivalLane="547625725_0" arrivalPos="73.62" arrivalSpeed="23.57" duration="71.00" routeLength="287.99" waitingTime="45.00" waitingCount="1" stopTime="0.00" timeLoss="65.45" rerouteNo="0" devices="tripinfo_south4219_18" vType="DEFAULT_VEHTYPE" speedFactor="0.94" vaporized=""/>
    <tripinfo id="south4219_46" depart="22.00" departLane="620377506_0" departPos="5.10" departSpeed="0.00" departDelay="0.00" arrival="79.00" arrivalLane="547625725_1" arrivalPos="73.62" arrivalSpeed="25.19" duration="57.00" routeLength="287.99" waitingTime="30.00" waitingCount="1" stopTime="0.00" timeLoss="51.30" rerouteNo="0" devices="tripinfo_south4219_46" vType="DEFAULT_VEHTYPE" speedFactor="1.00" vaporized=""/>
    <tripinfo id="4235e4219n_26" depart="37.00" departLane="619523290#0_0" departPos="5.10" departSpeed="0.00" departDelay="24.00" arrival="80.00" arrivalLane="620377501#0_0" arrivalPos="20.24" arrivalSpeed="24.11" duration="43.00" routeLength="798.42" waitingTime="0.00" waitingCount="0" stopTime="0.00" timeLoss="27.89" rerouteNo="0" devices="tripinfo_4235e4219n_26" vType="DEFAULT_VEHTYPE" speedFactor="0.92" vaporized=""/>
    <tripinfo id="4219n4235w_31" depart="19.00" departLane="620377515_0" departPos="5.10" departSpeed="0.00" departDelay="3.00" arrival="80.00" arrivalLane="619523287#1_0" arrivalPos="83.27" arrivalSpeed="27.93" duration="61.00" routeLength="638.71" waitingTime="17.00" waitingCount="1" stopTime="0.00" timeLoss="49.35" rerouteNo="0" devices="tripinfo_4219n4235w_31" vType="DEFAULT_VEHTYPE" speedFactor="1.15" vaporized=""/>
    <tripinfo id="south4219_74" depart="33.00" departLane="620377506_0" departPos="5.10" departSpeed="0.00" departDelay="0.00" arrival="81.00" arrivalLane="547625725_0" arrivalPos="73.62" arrivalSpeed="21.75" duration="48.00" routeLength="287.99" waitingTime="19.00" waitingCount="1" stopTime="0.00" timeLoss="42.54" rerouteNo="0" devices="tripinfo_south4219_74" vType="DEFAULT_VEHTYPE" speedFactor="0.96" vaporized=""/>
    <tripinfo id="south4219_76" depart="36.00" departLane="620377506_0" departPos="5.10" departSpeed="0.00" departDelay="1.00" arrival="81.00" arrivalLane="547625725_1" arrivalPos="73.62" arrivalSpeed="23.64" duration="45.00" routeLength="287.99" waitingTime="17.00" waitingCount="1" stopTime="0.00" timeLoss="39.47" rerouteNo="0" devices="tripinfo_south4219_76" vType="DEFAULT_VEHTYPE" speedFactor="1.03" vaporized=""/>
    <tripinfo id="4221n4220s_88" depart="46.00" departLane="-620463733_0" departPos="5.10" departSpeed="0.00" departDelay="8.00" arrival="82.00" arrivalLane="gneE41_0" arrivalPos="28.67" arrivalSpeed="13.20" duration="36.00" routeLength="522.77" waitingTime="0.00" waitingCount="0" stopTime="0.00" timeLoss="22.80" rerouteNo="0" devices="tripinfo_4221n4220s_88" vType="DEFAULT_VEHTYPE" speedFactor="1.01" vaporized=""/>
    <tripinfo id="south4219_96" depart="45.00" departLane="620377506_0" departPos="5.10" departSpeed="0.00" departDelay="3.00" arrival="82.00" arrivalLane="547625725_1" arrivalPos="73.62" arrivalSpeed="24.45" duration="37.00" routeLength="287.99" waitingTime="10.00" waitingCount="1" stopTime="0.00" timeLoss="31.62" rerouteNo="0" devices="tripinfo_south4219_96" vType="DEFAULT_VEHTYPE" speedFactor="1.01" vaporized=""/>
    <tripinfo id="south4219_84" depart="39.00" departLane="620377506_0" departPos="5.10" departSpeed="0.00" departDelay="1.00" arrival="83.00" arrivalLane="547625725_0" arrivalPos="73.62" arrivalSpeed="26.05" duration="44.00" routeLength="287.99" waitingTime="15.00" waitingCount="1" stopTime="0.00" timeLoss="38.31" rerouteNo="0" devices="tripinfo_south4219_84" vType="DEFAULT_VEHTYPE" speedFactor="1.15" vaporized=""/>
    <tripinfo id="4235e4219n_29" depart="40.00" departLane="619523290#0_0" departPos="5.10" departSpeed="0.00" departDelay="25.00" arrival="84.00" arrivalLane="620377501#0_0" arrivalPos="20.24" arrivalSpeed="23.77" duration="44.00" routeLength="798.42" waitingTime="0.00" waitingCount="0" stopTime="0.00" timeLoss="28.95" rerouteNo="0" devices="tripinfo_4235e4219n_29" vType="DEFAULT_VEHTYPE" speedFactor="0.93" vaporized=""/>
    <tripinfo id="south4219_133" depart="59.00" departLane="620377506_0" departPos="5.10" departSpeed="0.00" departDelay="0.00" arrival="84.00" arrivalLane="547625725_1" arrivalPos="73.62" arrivalSpeed="25.13" duration="25.00" routeLength="287.99" waitingTime="0.00" waitingCount="0" stopTime="0.00" timeLoss="19.13" rerouteNo="0" devices="tripinfo_south4219_133" vType="DEFAULT_VEHTYPE" speedFactor="1.04" vaporized=""/>
    <tripinfo id="south4219_150" depart="66.00" departLane="620377506_0" departPos="5.10" departSpeed="0.00" departDelay="0.00" arrival="85.00" arrivalLane="547625725_0" arrivalPos="73.62" arrivalSpeed="26.33" duration="19.00" routeLength="287.99" waitingTime="0.00" waitingCount="0" stopTime="0.00" timeLoss="13.55" rerouteNo="0" devices="tripinfo_south4219_150" vType="DEFAULT_VEHTYPE" speedFactor="0.96" vaporized=""/>
    <tripinfo id="4221s4220n_82" depart="37.00" departLane="-28594060#4_0" departPos="5.10" departSpeed="0.00" departDelay="0.00" arrival="86.00" arrivalLane="gneE44_0" arrivalPos="38.13" arrivalSpeed="13.30" duration="49.00" routeLength="863.02" waitingTime="0.00" waitingCount="0" stopTime="0.00" timeLoss="24.17" rerouteNo="0" devices="tripinfo_4221s4220n_82" vType="DEFAULT_VEHTYPE" speedFactor="1.02" vaporized=""/>
    <tripinfo id="se4221_94" depart="41.00" departLane="-28594060#4_0" departPos="5.10" departSpeed="0.00" departDelay="0.00" arrival="86.00" arrivalLane="28573015#6_0" arrivalPos="68.82" arrivalSpeed="38.42" duration="45.00" routeLength="1000.38" waitingTime="0.00" waitingCount="0" stopTime="0.00" timeLoss="26.22" rerouteNo="0" devices="tripinfo_se4221_94" vType="DEFAULT_VEHTYPE" speedFactor="1.09" vaporized=""/>
    <tripinfo id="south4219_152" depart="69.00" departLane="620377506_0" departPos="5.10" departSpeed="0.00" departDelay="2.00" arrival="87.00" arrivalLane="547625725_0" arrivalPos="73.62" arrivalSpeed="29.08" duration="18.00" routeLength="287.99" waitingTime="0.00" waitingCount="0" stopTime="0.00" timeLoss="12.37" rerouteNo="0" devices="tripinfo_south4219_152" vType="DEFAULT_VEHTYPE" speedFactor="1.07" vaporized=""/>
    <tripinfo id="4235e4219n_33" depart="49.00" departLane="619523290#0_0" departPos="5.10" departSpeed="0.00" departDelay="32.00" arrival="90.00" arrivalLane="620377501#0_0" arrivalPos="20.24" arrivalSpeed="24.42" duration="41.00" routeLength="798.42" waitingTime="0.00" waitingCount="0" stopTime="0.00" timeLoss="26.13" rerouteNo="0" devices="tripinfo_4235e4219n_33" vType="DEFAULT_VEHTYPE" speedFactor="1.17" vaporized=""/>
    <tripinfo id="south4219_156" depart="72.00" departLane="620377506_0" departPos="5.10" departSpeed="0.00" departDelay="2.00" arrival="90.00" arrivalLane="547625725_0" arrivalPos="73.62" arrivalSpeed="29.97" duration="18.00" routeLength="287.99" waitingTime="0.00" waitingCount="0" stopTime="0.00" timeLoss="12.33" rerouteNo="0" devices="tripinfo_south4219_156" vType="DEFAULT_VEHTYPE" speedFactor="1.18" vaporized=""/>
    <tripinfo id="north4221_19" depart="9.00" departLane="-620463733_0" departPos="5.10" departSpeed="0.00" departDelay="0.00" arrival="96.00" arrivalLane="28594060#4_1" arrivalPos="123.22" arrivalSpeed="41.38" duration="87.00" routeLength="979.20" waitingTime="33.00" waitingCount="1" stopTime="0.00" timeLoss="68.32" rerouteNo="0" devices="tripinfo_north4221_19" vType="DEFAULT_VEHTYPE" speedFactor="1.16" vaporized=""/>
    <tripinfo id="4235e4219n_39" depart="55.00" departLane="619523290#0_0" departPos="5.10" departSpeed="0.00" departDelay="36.00" arrival="96.00" arrivalLane="620377501#0_0" arrivalPos="20.24" arrivalSpeed="25.04" duration="41.00" routeLength="798.42" waitingTime="0.00" waitingCount="0" stopTime="0.00" timeLoss="25.59" rerouteNo="0" devices="tripinfo_4235e4219n_39" vType="DEFAULT_VEHTYPE" speedFactor="0.90" vaporized=""/>
    <tripinfo id="north4219_28" depart="16.00" departLane="620377515_0" departPos="5.10" departSpeed="0.00" departDelay="1.00" arrival="98.00" arrivalLane="620377501#0_1" arrivalPos="20.24" arrivalSpeed="26.26" duration="82.00" routeLength="301.34" waitingTime="55.00" waitingCount="1" stopTime="0.00" timeLoss="76.58" rerouteNo="0" devices="tripinfo_north4219_28" vType="DEFAULT_VEHTYPE" speedFactor="1.13" vaporized=""/>
    <tripinfo id="north4219_38" depart="23.00" departLane="620377515_0" departPos="5.10" departSpeed="0.00" departDelay="5.00" arrival="98.00" arrivalLane="620377501#0_2" arrivalPos="20.24" arrivalSpeed="27.58" duration="75.00" routeLength="301.34" waitingTime="47.00" waitingCount="1" stopTime="0.00" timeLoss="69.26" rerouteNo="0" devices="tripinfo_north4219_38" vType="DEFAULT_VEHTYPE" speedFactor="1.10" vaporized=""/>
    <tripinfo id="nw4235_123" depart="55.00" departLane="-628341438#1_0" departPos="5.10" departSpeed="0.00" departDelay="0.00" arrival="98.00" arrivalLane="619523287#1_0" arrivalPos="83.27" arrivalSpeed="29.77" duration="43.00" routeLength="291.25" waitingTime="16.00" waitingCount="1" stopTime="0.00" timeLoss="36.18" rerouteNo="0" devices="tripinfo_nw4235_123" vType="DEFAULT_VEHTYPE" speedFactor="1.02" vaporized=""/>
    <tripinfo id="north4221_7" depart="2.00" departLane="-620463733_0" departPos="5.10" departSpeed="0.00" departDelay="0.00" arrival="99.00" arrivalLane="28594060#4_0" arrivalPos="123.22" arrivalSpeed="40.13" duration="97.00" routeLength="979.20" waitingTime="40.00" waitingCount="1" stopTime="0.00" timeLoss="77.59" rerouteNo="0" devices="tripinfo_north4221_7" vType="DEFAULT_VEHTYPE" speedFactor="0.89" vaporized=""/>
    <tripinfo id="north4221_25" depart="13.00" departLane="-620463733_0" departPos="5.10" departSpeed="0.00" departDelay="0.00" arrival="99.00" arrivalLane="28594060#4_1" arrivalPos="123.22" arrivalSpeed="41.62" duration="86.00" routeLength="979.20" waitingTime="29.00" waitingCount="1" stopTime="0.00" timeLoss="66.93" rerouteNo="0" devices="tripinfo_north4221_25" vType="DEFAULT_VEHTYPE" speedFactor="0.87" vaporized=""/>
    <tripinfo id="north4219_50" depart="26.00" departLane="620377515_0" departPos="5.10" departSpeed="0.00" departDelay="3.00" arrival="100.00" arrivalLane="620377501#0_1" arrivalPos="20.24" arrivalSpeed="27.43" duration="74.00" routeLength="301.34" waitingTime="46.00" waitingCount="1" stopTime="0.00" timeLoss="67.34" rerouteNo="0" devices="tripinfo_north4219_50" vType="DEFAULT_VEHTYPE" speedFactor="0.85" vaporized=""/>
    <tripinfo id="north4219_54" depart="29.00" departLane="620377515_0" departPos="5.10" departSpeed="0.00" departDelay="4.00" arrival="100.00" arrivalLane="620377501#0_2" arrivalPos="20.24" arrivalSpeed="27.13" duration="71.00" routeLength="301.34" waitingTime="41.00" waitingCount="1" stopTime="0.00" timeLoss="65.22" rerouteNo="0" devices="tripinfo_north4219_54" vType="DEFAULT_VEHTYPE" speedFactor="1.00" vaporized=""/>
    <tripinfo id="north4221_60" depart="31.00" departLane="-620463733_0" departPos="5.10" departSpeed="0.00" departDelay="5.00" arrival="101.00" arrivalLane="28594060#4_0" arrivalPos="123.22" arrivalSpeed="40.39" duration="70.00" routeLength="979.20" waitingTime="14.00" waitingCount="1" stopTime="0.00" timeLoss="52.03" rerouteNo="0" devices="tripinfo_north4221_60" vType="DEFAULT_VEHTYPE" speedFactor="1.08" vaporized=""/>
    <tripinfo id="north4219_66" depart="32.00" departLane="620377515_0" departPos="5.10" departSpeed="0.00" departDelay="4.00" arrival="101.00" arrivalLane="620377501#0_1" arrivalPos="20.24" arrivalSpeed="26.45" duration="69.00" routeLength="301.34" waitingTime="40.00" waitingCount="1" stopTime="0.00" timeLoss="63.27" rerouteNo="0" devices="tripinfo_north4219_66" vType="DEFAULT_VEHTYPE" speedFactor="0.91" vaporized=""/>
    <tripinfo id="north4221_68" depart="37.00" departLane="-620463733_0" departPos="5.10" departSpeed="0.00" departDelay="6.00" arrival="101.00" arrivalLane="28594060#4_1" arrivalPos="123.22" arrivalSpeed="42.17" duration="64.00" routeLength="979.20" waitingTime="7.00" waitingCount="1" stopTime="0.00" timeLoss="45.68" rerouteNo="0" devices="tripinfo_north4221_68" vType="DEFAULT_VEHTYPE" speedFactor="1.04" vaporized=""/>
    <tripinfo id="north4219_77" depart="36.00" departLane="620377515_0" departPos="5.10" departSpeed="0.00" departDelay="0.00" arrival="101.00" arrivalLane="620377501#0_2" arrivalPos="20.24" arrivalSpeed="27.81" duration="65.00" routeLength="301.34" waitingTime="36.00" waitingCount="1" stopTime="0.00" timeLoss="59.46" rerouteNo="0" devices="tripinfo_north4219_77" vType="DEFAULT_VEHTYPE" speedFactor="0.98" vaporized=""/>
    <tripinfo id="south4221_118" depart="51.00" departLane="-28594060#4_0" departPos="5.10" departSpeed="0.00" departDelay="0.00" arrival="101.00" arrivalLane="620463733_0" arrivalPos="133.76" arrivalSpeed="37.44" duration="50.00" routeLength="972.31" waitingTime="2.00" waitingCount="1" stopTime="0.00" timeLoss="32.15" rerouteNo="0" devices="tripinfo_south4221_118" vType="DEFAULT_VEHTYPE" speedFactor="0.99" vaporized=""/>
    <tripinfo id="nw4235_132" depart="59.00" departLane="-628341438#1_0" departPos="5.10" departSpeed="0.00" departDelay="0.00" arrival="102.00" arrivalLane="619523287#1_0" arrivalPos="83.27" arrivalSpeed="27.22" duration="43.00" routeLength="291.25" waitingTime="14.00" waitingCount="1" stopTime="0.00" timeLoss="36.05" rerouteNo="0" devices="tripinfo_nw4235_132" vType="DEFAULT_VEHTYPE" speedFactor="0.96" vaporized=""/>
    <tripinfo id="north4221_62" depart="34.00" departLane="-620463733_0" departPos="5.10" departSpeed="0.00" departDelay="7.00" arrival="103.00" arrivalLane="28594060#4_0" arrivalPos="123.22" arrivalSpeed="43.21" duration="69.00" routeLength="979.20" waitingTime="10.00" waitingCount="1" stopTime="0.00" timeLoss="50.54" rerouteNo="0" devices="tripinfo_north4221_62" vType="DEFAULT_VEHTYPE" speedFactor="1.02" vaporized=""/>
    <tripinfo id="north4221_85" depart="43.00" departLane="-620463733_0" departPos="5.10" departSpeed="0.00" departDelay="5.00" arrival="103.00" arrivalLane="28594060#4_1" arrivalPos="123.22" arrivalSpeed="44.61" duration="60.00" routeLength="979.20" waitingTime="2.00" waitingCount="1" stopTime="0.00" timeLoss="41.34" rerouteNo="0" devices="tripinfo_north4221_85" vType="DEFAULT_VEHTYPE" speedFactor="0.98" vaporized=""/>
    <tripinfo id="north4219_104" depart="44.00" departLane="620377515_0" departPos="5.10" departSpeed="0.00" departDelay="0.00" arrival="103.00" arrivalLane="620377501#0_2" arrivalPos="20.24" arrivalSpeed="26.59" duration="59.00" routeLength="301.34" waitingTime="29.00" waitingCount="1" stopTime="0.00" timeLoss="53.20" rerouteNo="0" devices="tripinfo_north4219_104" vType="DEFAULT_VEHTYPE" speedFactor="0.89" vaporized=""/>
    <tripinfo id="south4221_122" depart="54.00" departLane="-28594060#4_0" departPos="5.10" departSpeed="0.00" departDelay="0.00" arrival="103.00" arrivalLane="620463733_0" arrivalPos="133.76" arrivalSpeed="36.78" duration="49.00" routeLength="972.31" waitingTime="0.00" waitingCount="0" stopTime="0.00" timeLoss="31.24" rerouteNo="0" devices="tripinfo_south4221_122" vType="DEFAULT_VEHTYPE" speedFactor="1.03" vaporized=""/>
    <tripinfo id="north4221_72" depart="40.00" departLane="-620463733_0" departPos="5.10" departSpeed="0.00" departDelay="8.00" arrival="104.00" arrivalLane="28594060#4_0" arrivalPos="123.22" arrivalSpeed="43.20" duration="64.00" routeLength="979.20" waitingTime="6.00" waitingCount="1" stopTime="0.00" timeLoss="45.88" rerouteNo="0" devices="tripinfo_north4221_72" vType="DEFAULT_VEHTYPE" speedFactor="0.94" vaporized=""/>
    <tripinfo id="north4219_91" depart="40.00" departLane="620377515_0" departPos="5.10" departSpeed="0.00" departDelay="0.00" arrival="104.00" arrivalLane="620377501#0_1" arrivalPos="20.24" arrivalSpeed="28.68" duration="64.00" routeLength="301.34" waitingTime="34.00" waitingCount="1" stopTime="0.00" timeLoss="57.78" rerouteNo="0" devices="tripinfo_north4219_91" vType="DEFAULT_VEHTYPE" speedFactor="0.89" vaporized=""/>
    <tripinfo id="south4221_130" depart="57.00" departLane="-28594060#4_0" departPos="5.10" departSpeed="0.00" departDelay="0.00" arrival="105.00" arrivalLane="620463733_0" arrivalPos="133.76" arrivalSpeed="38.72" duration="48.00" routeLength="972.31" waitingTime="0.00" waitingCount="0" stopTime="0.00" timeLoss="29.96" rerouteNo="0" devices="tripinfo_south4221_130" vType="DEFAULT_VEHTYPE" speedFactor="1.03" vaporized=""/>
    <tripinfo id="north4219_168" depart="75.00" departLane="620377515_0" departPos="5.10" departSpeed="0.00" departDelay="0.00" arrival="105.00" arrivalLane="620377501#0_1" arrivalPos="20.24" arrivalSpeed="26.14" duration="30.00" routeLength="301.34" waitingTime="2.00" waitingCount="1" stopTime="0.00" timeLoss="24.46" rerouteNo="0" devices="tripinfo_north4219_168" vType="DEFAULT_VEHTYPE" speedFactor="0.98" vaporized=""/>
    <tripinfo id="north4219_172" depart="78.00" departLane="620377515_0" departPos="5.10" departSpeed="0.00" departDelay="0.00" arrival="105.00" arrivalLane="620377501#0_2" arrivalPos="20.24" arrivalSpeed="27.78" duration="27.00" routeLength="301.34" waitingTime="0.00" waitingCount="0" stopTime="0.00" timeLoss="20.91" rerouteNo="0" devices="tripinfo_north4219_172" vType="DEFAULT_VEHTYPE" speedFactor="0.89" vaporized=""/>
    <tripinfo id="north4221_111" depart="52.00" departLane="-620463733_0" departPos="5.10" departSpeed="0.00" departDelay="6.00" arrival="106.00" arrivalLane="28594060#4_1" arrivalPos="123.22" arrivalSpeed="41.31" duration="54.00" routeLength="979.20" waitingTime="0.00" waitingCount="0" stopTime="0.00" timeLoss="34.34" rerouteNo="0" devices="tripinfo_north4221_111" vType="DEFAULT_VEHTYPE" speedFactor="0.87" vaporized=""/>
    <tripinfo id="north4219_181" depart="83.00" departLane="620377515_0" departPos="5.10" departSpeed="0.00" departDelay="0.00" arrival="106.00" arrivalLane="620377501#0_2" arrivalPos="20.24" arrivalSpeed="27.17" duration="23.00" routeLength="301.34" waitingTime="0.00" waitingCount="0" stopTime="0.00" timeLoss="17.39" rerouteNo="0" devices="tripinfo_north4219_181" vType="DEFAULT_VEHTYPE" speedFactor="1.03" vaporized=""/>
    <tripinfo id="north4221_89" depart="49.00" departLane="-620463733_0" departPos="5.10" departSpeed="0.00" departDelay="10.00" arrival="107.00" arrivalLane="28594060#4_0" arrivalPos="123.22" arrivalSpeed="39.63" duration="58.00" routeLength="979.20" waitingTime="0.00" waitingCount="0" stopTime="0.00" timeLoss="40.01" rerouteNo="0" devices="tripinfo_north4221_89" vType="DEFAULT_VEHTYPE" speedFactor="1.02" vaporized=""/>
    <tripinfo id="north4221_117" depart="58.00" departLane="-620463733_0" departPos="5.10" departSpeed="0.00" departDelay="7.00" arrival="107.00" arrivalLane="28594060#4_1" arrivalPos="123.22" arrivalSpeed="41.43" duration="49.00" routeLength="979.20" waitingTime="0.00" waitingCount="0" stopTime="0.00" timeLoss="30.96" rerouteNo="0" devices="tripinfo_north4221_117" vType="DEFAULT_VEHTYPE" speedFactor="1.00" vaporized=""/>
    <tripinfo id="nw4235_166" depart="74.00" departLane="-628341438#1_0" departPos="5.10" departSpeed="0.00" departDelay="0.00" arrival="107.00" arrivalLane="619523287#1_0" arrivalPos="83.27" arrivalSpeed="28.98" duration="33.00" routeLength="291.25" waitingTime="0.00" waitingCount="0" stopTime="0.00" timeLoss="25.99" rerouteNo="0" devices="tripinfo_nw4235_166" vType="DEFAULT_VEHTYPE" speedFactor="1.00" vaporized=""/>
    <tripinfo id="se4235_32" depart="46.00" departLane="619523290#0_0" departPos="5.10" departSpeed="0.00" departDelay="29.00" arrival="109.00" arrivalLane="628341438#1_0" arrivalPos="36.44" arrivalSpeed="17.70" duration="63.00" routeLength="412.34" waitingTime="28.00" waitingCount="2" stopTime="0.00" timeLoss="53.48" rerouteNo="0" devices="tripinfo_se4235_32" vType="DEFAULT_VEHTYPE" speedFactor="1.01" vaporized=""/>
    <tripinfo id="nw4235_189" depart="86.00" departLane="-628341438#1_0" departPos="5.10" departSpeed="0.00" departDelay="0.00" arrival="109.00" arrivalLane="619523287#1_0" arrivalPos="83.27" arrivalSpeed="28.08" duration="23.00" routeLength="291.25" waitingTime="0.00" waitingCount="0" stopTime="0.00" timeLoss="15.94" rerouteNo="0" devices="tripinfo_nw4235_189" vType="DEFAULT_VEHTYPE" speedFactor="0.97" vaporized=""/>
    <tripinfo id="north4221_127" depart="61.00" departLane="-620463733_0" departPos="5.10" departSpeed="0.00" departDelay="5.00" arrival="110.00" arrivalLane="28594060#4_0" arrivalPos="123.22" arrivalSpeed="41.86" duration="49.00" routeLength="979.20" waitingTime="0.00" waitingCount="0" stopTime="0.00" timeLoss="28.17" rerouteNo="0" devices="tripinfo_north4221_127" vType="DEFAULT_VEHTYPE" speedFactor="0.82" vaporized=""/>