<?xml version="1.0" encoding="UTF-8"?>

<!-- generated on 07/09/20 17:04:05 by Eclipse SUMO GUI Version 1.5.0
<configuration xmlns:xsi="http://www.w3.org/2001/XMLSchema-instance" xsi:noNamespaceSchemaLocation="http://sumo.dlr.de/xsd/sumoConfiguration.xsd">

    <input>
        <net-file value="data/osm.net.xml"/>
        <route-files value="data/osm.rou.xml"/>
        <additional-files value="data/osm.det.xml"/>
    </input>

    <output>
        <tripinfo-output value="tripinfoEDF.xml"/>
    </output>

    <time>
        <begin value="0"/>
    </time>

    <report>
        <verbose value="true"/>
        <no-step-log value="true"/>
    </report>

    <traci_server>
        <remote-port value="54202"/>
    </traci_server>

</configuration>
-->

<tripinfos xmlns:xsi="http://www.w3.org/2001/XMLSchema-instance" xsi:noNamespaceSchemaLocation="http://sumo.dlr.de/xsd/tripinfo_file.xsd">
    <tripinfo id="nw4235_0" depart="0.00" departLane="-628341438#1_0" departPos="5.10" departSpeed="0.00" departDelay="0.00" arrival="23.00" arrivalLane="619523287#1_0" arrivalPos="83.27" arrivalSpeed="27.62" duration="23.00" routeLength="291.25" waitingTime="0.00" waitingCount="0" stopTime="0.00" timeLoss="15.83" rerouteNo="0" devices="tripinfo_nw4235_0" vType="DEFAULT_VEHTYPE" speedFactor="1.06" vaporized=""/>
    <tripinfo id="south4220_14" depart="6.00" departLane="gneE10_0" departPos="5.10" departSpeed="0.00" departDelay="0.00" arrival="23.00" arrivalLane="gneE41_0" arrivalPos="28.67" arrivalSpeed="13.19" duration="17.00" routeLength="130.18" waitingTime="0.00" waitingCount="0" stopTime="0.00" timeLoss="8.68" rerouteNo="0" devices="tripinfo_south4220_14" vType="DEFAULT_VEHTYPE" speedFactor="0.99" vaporized=""/>
    <tripinfo id="nw4235_10" depart="4.00" departLane="-628341438#1_0" departPos="5.10" departSpeed="0.00" departDelay="0.00" arrival="27.00" arrivalLane="619523287#1_0" arrivalPos="83.27" arrivalSpeed="29.04" duration="23.00" routeLength="291.25" waitingTime="0.00" waitingCount="0" stopTime="0.00" timeLoss="16.14" rerouteNo="0" devices="tripinfo_nw4235_10" vType="DEFAULT_VEHTYPE" speedFactor="1.09" vaporized=""/>
    <tripinfo id="4235e4219n_1" depart="0.00" departLane="619523290#0_0" departPos="5.10" departSpeed="0.00" departDelay="0.00" arrival="30.00" arrivalLane="620377501#0_0" arrivalPos="20.24" arrivalSpeed="34.81" duration="30.00" routeLength="798.42" waitingTime="0.00" waitingCount="0" stopTime="0.00" timeLoss="15.38" rerouteNo="0" devices="tripinfo_4235e4219n_1" vType="DEFAULT_VEHTYPE" speedFactor="0.94" vaporized=""/>
    <tripinfo id="south4221_9" depart="3.00" departLane="-28594060#4_0" departPos="5.10" departSpeed="0.00" departDelay="0.00" arrival="35.00" arrivalLane="620463733_0" arrivalPos="133.76" arrivalSpeed="51.40" duration="32.00" routeLength="972.31" waitingTime="0.00" waitingCount="0" stopTime="0.00" timeLoss="12.64" rerouteNo="0" devices="tripinfo_south4221_9" vType="DEFAULT_VEHTYPE" speedFactor="0.86" vaporized=""/>
    <tripinfo id="4235e4219n_11" depart="14.00" departLane="619523290#0_0" departPos="5.10" departSpeed="0.00" departDelay="10.00" arrival="45.00" arrivalLane="620377501#0_0" arrivalPos="20.24" arrivalSpeed="34.65" duration="31.00" routeLength="798.42" waitingTime="0.00" waitingCount="0" stopTime="0.00" timeLoss="16.15" rerouteNo="0" devices="tripinfo_4235e4219n_11" vType="DEFAULT_VEHTYPE" speedFactor="1.03" vaporized=""/>
    <tripinfo id="south4220_55" depart="25.00" departLane="gneE10_0" departPos="5.10" departSpeed="0.00" departDelay="0.00" arrival="47.00" arrivalLane="gneE41_0" arrivalPos="28.67" arrivalSpeed="12.10" duration="22.00" routeLength="130.18" waitingTime="0.00" waitingCount="0" stopTime="0.00" timeLoss="14.20" rerouteNo="0" devices="tripinfo_south4220_55" vType="DEFAULT_VEHTYPE" speedFactor="1.00" vaporized=""/>
    <tripinfo id="4219n4235w_31" depart="19.00" departLane="620377515_0" departPos="5.10" departSpeed="0.00" departDelay="3.00" arrival="52.00" arrivalLane="619523287#1_0" arrivalPos="83.27" arrivalSpeed="46.36" duration="33.00" routeLength="638.71" waitingTime="0.00" waitingCount="0" stopTime="0.00" timeLoss="20.77" rerouteNo="0" devices="tripinfo_4219n4235w_31" vType="DEFAULT_VEHTYPE" speedFactor="1.15" vaporized=""/>
    <tripinfo id="4235e4219s_2" depart="3.00" departLane="619523290#0_0" departPos="5.10" departSpeed="0.00" departDelay="3.00" arrival="57.00" arrivalLane="547625725_0" arrivalPos="73.62" arrivalSpeed="22.45" duration="54.00" routeLength="790.43" waitingTime="11.00" waitingCount="1" stopTime="0.00" timeLoss="37.12" rerouteNo="0" devices="tripinfo_4235e4219s_2" vType="DEFAULT_VEHTYPE" speedFactor="1.01" vaporized=""/>
    <tripinfo id="4235e4219s_16" depart="23.00" departLane="619523290#0_0" departPos="5.10" departSpeed="0.00" departDelay="16.00" arrival="62.00" arrivalLane="547625725_0" arrivalPos="73.62" arrivalSpeed="24.04" duration="39.00" routeLength="790.43" waitingTime="0.00" waitingCount="0" stopTime="0.00" timeLoss="20.72" rerouteNo="0" devices="tripinfo_4235e4219s_16" vType="DEFAULT_VEHTYPE" speedFactor="0.88" vaporized=""/>
    <tripinfo id="4235e4219n_26" depart="38.00" departLane="619523290#0_0" departPos="5.10" departSpeed="0.00" departDelay="25.00" arrival="71.00" arrivalLane="620377501#0_0" arrivalPos="20.24" arrivalSpeed="33.65" duration="33.00" routeLength="798.42" waitingTime="0.00" waitingCount="0" stopTime="0.00" timeLoss="18.28" rerouteNo="0" devices="tripinfo_4235e4219n_26" vType="DEFAULT_VEHTYPE" speedFactor="0.92" vaporized=""/>
    <tripinfo id="4221n4219s_40" depart="20.00" departLane="-620463733_0" departPos="5.10" departSpeed="0.00" departDelay="0.00" arrival="71.00" arrivalLane="547625725_0" arrivalPos="73.62" arrivalSpeed="22.95" duration="51.00" routeLength="724.41" waitingTime="0.00" waitingCount="0" stopTime="0.00" timeLoss="31.75" rerouteNo="0" devices="tripinfo_4221n4219s_40" vType="DEFAULT_VEHTYPE" speedFactor="1.03" vaporized=""/>
    <tripinfo id="4235e4219n_29" depart="41.00" departLane="619523290#0_0" departPos="5.10" departSpeed="0.00" departDelay="26.00" arrival="73.00" arrivalLane="620377501#0_0" arrivalPos="20.24" arrivalSpeed="31.87" duration="32.00" routeLength="798.42" waitingTime="0.00" waitingCount="0" stopTime="0.00" timeLoss="17.54" rerouteNo="0" devices="tripinfo_4235e4219n_29" vType="DEFAULT_VEHTYPE" speedFactor="0.93" vaporized=""/>
    <tripinfo id="south4219_18" depart="8.00" departLane="620377506_0" departPos="5.10" departSpeed="0.00" departDelay="0.00" arrival="79.00" arrivalLane="547625725_0" arrivalPos="73.62" arrivalSpeed="23.17" duration="71.00" routeLength="287.99" waitingTime="43.00" waitingCount="1" stopTime="0.00" timeLoss="65.66" rerouteNo="0" devices="tripinfo_south4219_18" vType="DEFAULT_VEHTYPE" speedFactor="0.94" vaporized=""/>
    <tripinfo id="south4219_46" depart="22.00" departLane="620377506_0" departPos="5.10" departSpeed="0.00" departDelay="0.00" arrival="79.00" arrivalLane="547625725_1" arrivalPos="73.62" arrivalSpeed="25.06" duration="57.00" routeLength="287.99" waitingTime="29.00" waitingCount="1" stopTime="0.00" timeLoss="51.52" rerouteNo="0" devices="tripinfo_south4219_46" vType="DEFAULT_VEHTYPE" speedFactor="1.00" vaporized=""/>
    <tripinfo id="4219s4235w_95" depart="42.00" departLane="620377506_0" departPos="5.10" departSpeed="0.00" departDelay="1.00" arrival="79.00" arrivalLane="619523287#1_2" arrivalPos="83.27" arrivalSpeed="46.94" duration="37.00" routeLength="716.96" waitingTime="0.00" waitingCount="0" stopTime="0.00" timeLoss="22.36" rerouteNo="0" devices="tripinfo_4219s4235w_95" vType="DEFAULT_VEHTYPE" speedFactor="1.06" vaporized=""/>
    <tripinfo id="4235e4219n_33" depart="49.00" departLane="619523290#0_0" departPos="5.10" departSpeed="0.00" departDelay="32.00" arrival="80.00" arrivalLane="620377501#0_0" arrivalPos="20.24" arrivalSpeed="38.76" duration="31.00" routeLength="798.42" waitingTime="0.00" waitingCount="0" stopTime="0.00" timeLoss="16.13" rerouteNo="0" devices="tripinfo_4235e4219n_33" vType="DEFAULT_VEHTYPE" speedFactor="1.17" vaporized=""/>
    <tripinfo id="4219s4235w_58" depart="25.00" departLane="620377506_0" departPos="5.10" departSpeed="0.00" departDelay="0.00" arrival="80.00" arrivalLane="619523287#1_1" arrivalPos="83.27" arrivalSpeed="46.53" duration="55.00" routeLength="721.74" waitingTime="16.00" waitingCount="1" stopTime="0.00" timeLoss="39.81" rerouteNo="0" devices="tripinfo_4219s4235w_58" vType="DEFAULT_VEHTYPE" speedFactor="1.02" vaporized=""/>
    <tripinfo id="south4219_74" depart="33.00" departLane="620377506_0" departPos="5.10" departSpeed="0.00" departDelay="0.00" arrival="81.00" arrivalLane="547625725_0" arrivalPos="73.62" arrivalSpeed="20.46" duration="48.00" routeLength="287.99" waitingTime="19.00" waitingCount="1" stopTime="0.00" timeLoss="42.68" rerouteNo="0" devices="tripinfo_south4219_74" vType="DEFAULT_VEHTYPE" speedFactor="0.96" vaporized=""/>
    <tripinfo id="south4219_76" depart="36.00" departLane="620377506_0" departPos="5.10" departSpeed="0.00" departDelay="1.00" arrival="81.00" arrivalLane="547625725_1" arrivalPos="73.62" arrivalSpeed="22.34" duration="45.00" routeLength="287.99" waitingTime="17.00" waitingCount="1" stopTime="0.00" timeLoss="39.57" rerouteNo="0" devices="tripinfo_south4219_76" vType="DEFAULT_VEHTYPE" speedFactor="1.03" vaporized=""/>
    <tripinfo id="4221s4220n_82" depart="37.00" departLane="-28594060#4_0" departPos="5.10" departSpeed="0.00" departDelay="0.00" arrival="82.00" arrivalLane="gneE44_0" arrivalPos="38.65" arrivalSpeed="13.91" duration="45.00" routeLength="855.19" waitingTime="0.00" waitingCount="0" stopTime="0.00" timeLoss="21.62" rerouteNo="0" devices="tripinfo_4221s4220n_82" vType="DEFAULT_VEHTYPE" speedFactor="1.02" vaporized=""/>
    <tripinfo id="4221n4220s_88" depart="46.00" departLane="-620463733_0" departPos="5.10" departSpeed="0.00" departDelay="8.00" arrival="82.00" arrivalLane="gneE41_0" arrivalPos="28.67" arrivalSpeed="12.99" duration="36.00" routeLength="522.68" waitingTime="0.00" waitingCount="0" stopTime="0.00" timeLoss="22.92" rerouteNo="0" devices="tripinfo_4221n4220s_88" vType="DEFAULT_VEHTYPE" speedFactor="1.01" vaporized=""/>
    <tripinfo id="south4219_84" depart="39.00" departLane="620377506_0" departPos="5.10" departSpeed="0.00" departDelay="1.00" arrival="83.00" arrivalLane="547625725_0" arrivalPos="73.62" arrivalSpeed="24.11" duration="44.00" routeLength="287.99" waitingTime="16.00" waitingCount="1" stopTime="0.00" timeLoss="38.64" rerouteNo="0" devices="tripinfo_south4219_84" vType="DEFAULT_VEHTYPE" speedFactor="1.15" vaporized=""/>
    <tripinfo id="south4219_96" depart="44.00" departLane="620377506_0" departPos="5.10" departSpeed="0.00" departDelay="2.00" arrival="83.00" arrivalLane="547625725_1" arrivalPos="73.62" arrivalSpeed="26.20" duration="39.00" routeLength="287.99" waitingTime="10.00" waitingCount="1" stopTime="0.00" timeLoss="33.30" rerouteNo="0" devices="tripinfo_south4219_96" vType="DEFAULT_VEHTYPE" speedFactor="1.01" vaporized=""/>
    <tripinfo id="4235e4221n_4" depart="9.00" departLane="619523290#0_0" departPos="5.10" departSpeed="0.00" departDelay="8.00" arrival="84.00" arrivalLane="28594060#4_0" arrivalPos="123.22" arrivalSpeed="42.74" duration="75.00" routeLength="1590.19" waitingTime="0.00" waitingCount="0" stopTime="0.00" timeLoss="43.87" rerouteNo="0" devices="tripinfo_4235e4221n_4" vType="DEFAULT_VEHTYPE" speedFactor="1.03" vaporized=""/>
    <tripinfo id="south4219_133" depart="59.00" departLane="620377506_0" departPos="5.10" departSpeed="0.00" departDelay="0.00" arrival="84.00" arrivalLane="547625725_1" arrivalPos="73.62" arrivalSpeed="24.04" duration="25.00" routeLength="287.99" waitingTime="0.00" waitingCount="0" stopTime="0.00" timeLoss="19.56" rerouteNo="0" devices="tripinfo_south4219_133" vType="DEFAULT_VEHTYPE" speedFactor="1.04" vaporized=""/>
    <tripinfo id="south4219_150" depart="66.00" departLane="620377506_0" departPos="5.10" departSpeed="0.00" departDelay="0.00" arrival="85.00" arrivalLane="547625725_0" arrivalPos="73.62" arrivalSpeed="27.24" duration="19.00" routeLength="287.99" waitingTime="0.00" waitingCount="0" stopTime="0.00" timeLoss="13.76" rerouteNo="0" devices="tripinfo_south4219_150" vType="DEFAULT_VEHTYPE" speedFactor="0.96" vaporized=""/>
    <tripinfo id="south4220_101" depart="45.00" departLane="gneE10_0" departPos="5.10" departSpeed="0.00" departDelay="2.00" arrival="87.00" arrivalLane="gneE41_0" arrivalPos="28.67" arrivalSpeed="13.25" duration="42.00" routeLength="130.18" waitingTime="22.00" waitingCount="1" stopTime="0.00" timeLoss="34.18" rerouteNo="0" devices="tripinfo_south4220_101" vType="DEFAULT_VEHTYPE" speedFactor="0.96" vaporized=""/>
    <tripinfo id="south4219_152" depart="69.00" departLane="620377506_0" departPos="5.10" departSpeed="0.00" departDelay="2.00" arrival="87.00" arrivalLane="547625725_0" arrivalPos="73.62" arrivalSpeed="29.29" duration="18.00" routeLength="287.99" waitingTime="0.00" waitingCount="0" stopTime="0.00" timeLoss="12.66" rerouteNo="0" devices="tripinfo_south4219_152" vType="DEFAULT_VEHTYPE" speedFactor="1.07" vaporized=""/>
    <tripinfo id="se4221_94" depart="41.00" departLane="-28594060#4_0" departPos="5.10" departSpeed="0.00" departDelay="0.00" arrival="88.00" arrivalLane="28573015#6_0" arrivalPos="68.82" arrivalSpeed="39.41" duration="47.00" routeLength="1000.38" waitingTime="0.00" waitingCount="0" stopTime="0.00" timeLoss="27.65" rerouteNo="0" devices="tripinfo_se4221_94" vType="DEFAULT_VEHTYPE" speedFactor="1.09" vaporized=""/>
    <tripinfo id="4235e4219n_39" depart="55.00" departLane="619523290#0_0" departPos="5.10" departSpeed="0.00" departDelay="36.00" arrival="89.00" arrivalLane="620377501#0_0" arrivalPos="20.24" arrivalSpeed="32.82" duration="34.00" routeLength="798.42" waitingTime="0.00" waitingCount="0" stopTime="0.00" timeLoss="18.27" rerouteNo="0" devices="tripinfo_4235e4219n_39" vType="DEFAULT_VEHTYPE" speedFactor="0.90" vaporized=""/>
    <tripinfo id="4235e4221n_12" depart="17.00" departLane="619523290#0_0" departPos="5.10" departSpeed="0.00" departDelay="13.00" arrival="90.00" arrivalLane="28594060#4_1" arrivalPos="123.22" arrivalSpeed="44.55" duration="73.00" routeLength="1590.19" waitingTime="0.00" waitingCount="0" stopTime="0.00" timeLoss="41.59" rerouteNo="0" devices="tripinfo_4235e4221n_12" vType="DEFAULT_VEHTYPE" speedFactor="1.05" vaporized=""/>
    <tripinfo id="4235e4219n_42" depart="58.00" departLane="619523290#0_0" departPos="5.10" departSpeed="0.00" departDelay="37.00" arrival="90.00" arrivalLane="620377501#0_0" arrivalPos="20.24" arrivalSpeed="33.12" duration="32.00" routeLength="798.42" waitingTime="0.00" waitingCount="0" stopTime="0.00" timeLoss="17.50" rerouteNo="0" devices="tripinfo_4235e4219n_42" vType="DEFAULT_VEHTYPE" speedFactor="1.09" vaporized=""/>
    <tripinfo id="south4219_156" depart="72.00" departLane="620377506_0" departPos="5.10" departSpeed="0.00" departDelay="2.00" arrival="90.00" arrivalLane="547625725_0" arrivalPos="73.62" arrivalSpeed="31.08" duration="18.00" routeLength="287.99" waitingTime="0.00" waitingCount="0" stopTime="0.00" timeLoss="12.22" rerouteNo="0" devices="tripinfo_south4219_156" vType="DEFAULT_VEHTYPE" speedFactor="1.18" vaporized=""/>
    <tripinfo id="south4220_109" depart="51.00" departLane="gneE10_0" departPos="5.10" departSpeed="0.00" departDelay="6.00" arrival="91.00" arrivalLane="gneE41_0" arrivalPos="28.67" arrivalSpeed="13.15" duration="40.00" routeLength="130.18" waitingTime="16.00" waitingCount="1" stopTime="0.00" timeLoss="32.16" rerouteNo="0" devices="tripinfo_south4220_109" vType="DEFAULT_VEHTYPE" speedFactor="0.96" vaporized=""/>
    <tripinfo id="south4220_116" depart="60.00" departLane="gneE10_0" departPos="5.10" departSpeed="0.00" departDelay="9.00" arrival="99.00" arrivalLane="gneE41_0" arrivalPos="28.67" arrivalSpeed="15.77" duration="39.00" routeLength="130.18" waitingTime="15.00" waitingCount="1" stopTime="0.00" timeLoss="32.44" rerouteNo="0" devices="tripinfo_south4220_116" vType="DEFAULT_VEHTYPE" speedFactor="1.18" vaporized=""/>
    <tripinfo id="4235e4219n_47" depart="67.00" departLane="619523290#0_0" departPos="5.10" departSpeed="0.00" departDelay="45.00" arrival="101.00" arrivalLane="620377501#0_0" arrivalPos="20.24" arrivalSpeed="34.40" duration="34.00" routeLength="798.42" waitingTime="0.00" waitingCount="0" stopTime="0.00" timeLoss="18.27" rerouteNo="0" devices="tripinfo_4235e4219n_47" vType="DEFAULT_VEHTYPE" speedFactor="0.90" vaporized=""/>
    <tripinfo id="south4221_118" depart="51.00" departLane="-28594060#4_0" departPos="5.10" departSpeed="0.00" departDelay="0.00" arrival="102.00" arrivalLane="620463733_0" arrivalPos="133.76" arrivalSpeed="38.03" duration="51.00" routeLength="972.31" waitingTime="2.00" waitingCount="1" stopTime="0.00" timeLoss="32.88" rerouteNo="0" devices="tripinfo_south4221_118" vType="DEFAULT_VEHTYPE" speedFactor="0.99" vaporized=""/>
    <tripinfo id="south4221_122" depart="54.00" departLane="-28594060#4_0" departPos="5.10" departSpeed="0.00" departDelay="0.00" arrival="103.00" arrivalLane="620463733_0" arrivalPos="133.76" arrivalSpeed="36.82" duration="49.00" routeLength="972.31" waitingTime="0.00" waitingCount="0" stopTime="0.00" timeLoss="31.17" rerouteNo="0" devices="tripinfo_south4221_122" vType="DEFAULT_VEHTYPE" speedFactor="1.03" vaporized=""/>
    <tripinfo id="south4221_130" depart="57.00" departLane="-28594060#4_0" departPos="5.10" departSpeed="0.00" departDelay="0.00" arrival="105.00" arrivalLane="620463733_0" arrivalPos="133.76" arrivalSpeed="38.85" duration="48.00" routeLength="972.31" waitingTime="0.00" waitingCount="0" stopTime="0.00" timeLoss="29.90" rerouteNo="0" devices="tripinfo_south4221_130" vType="DEFAULT_VEHTYPE" speedFactor="1.03" vaporized=""/>
    <tripinfo id="south4220_126" depart="83.00" departLane="gneE10_0" departPos="5.10" departSpeed="0.00" departDelay="27.00" arrival="113.00" arrivalLane="gneE41_0" arrivalPos="28.67" arrivalSpeed="13.27" duration="30.00" routeLength="130.18" waitingTime="5.00" waitingCount="1" stopTime="0.00" timeLoss="22.04" rerouteNo="0" devices="tripinfo_south4220_126" vType="DEFAULT_VEHTYPE" speedFactor="1.03" vaporized=""/>
    <tripinfo id="north4219_6" depart="2.00" departLane="620377515_0" departPos="5.10" departSpeed="0.00" departDelay="0.00" arrival="115.00" arrivalLane="620377501#0_1" arrivalPos="20.24" arrivalSpeed="23.65" duration="113.00" routeLength="301.34" waitingTime="84.00" waitingCount="1" stopTime="0.00" timeLoss="107.53" rerouteNo="0" devices="tripinfo_north4219_6" vType="DEFAULT_VEHTYPE" speedFactor="1.05" vaporized=""/>
    <tripinfo id="se4221_153" depart="67.00" departLane="-28594060#4_0" departPos="5.10" departSpeed="0.00" departDelay="0.00" arrival="115.00" arrivalLane="28573015#6_0" arrivalPos="68.82" arrivalSpeed="40.52" duration="48.00" routeLength="1000.38" waitingTime="0.00" waitingCount="0" stopTime="0.00" timeLoss="28.52" rerouteNo="0" devices="tripinfo_se4221_153" vType="DEFAULT_VEHTYPE" speedFactor="0.93" vaporized=""/>
    <tripinfo id="north4219_8" depart="5.00" departLane="620377515_0" departPos="5.10" departSpeed="0.00" departDelay="2.00" arrival="116.00" arrivalLane="620377501#0_2" arrivalPos="20.24" arrivalSpeed="22.48" duration="111.00" routeLength="301.34" waitingTime="80.00" waitingCount="1" stopTime="0.00" timeLoss="105.36" rerouteNo="0" devices="tripinfo_north4219_8" vType="DEFAULT_VEHTYPE" speedFactor="0.94" vaporized=""/>
    <tripinfo id="4221n4219s_136" depart="67.00" departLane="-620463733_0" departPos="5.10" departSpeed="0.00" departDelay="7.00" arrival="117.00" arrivalLane="547625725_0" arrivalPos="73.62" arrivalSpeed="21.02" duration="50.00" routeLength="724.41" waitingTime="0.00" waitingCount="0" stopTime="0.00" timeLoss="31.59" rerouteNo="0" devices="tripinfo_4221n4219s_136" vType="DEFAULT_VEHTYPE" speedFactor="1.12" vaporized=""/>
    <tripinfo id="4221n4220s_182" depart="92.00" departLane="-620463733_0" departPos="5.10" departSpeed="0.00" departDelay="9.00" arrival="128.00" arrivalLane="gneE41_0" arrivalPos="28.67" arrivalSpeed="13.21" duration="36.00" routeLength="522.68" waitingTime="0.00" waitingCount="0" stopTime="0.00" timeLoss="22.80" rerouteNo="0" devices="tripinfo_4221n4220s_182" vType="DEFAULT_VEHTYPE" speedFactor="1.03" vaporized=""/>
    <tripinfo id="south4220_141" depart="90.00" departLane="gneE10_0" departPos="5.10" departSpeed="0.00" departDelay="28.00" arrival="130.00" arrivalLane="gneE41_0" arrivalPos="28.67" arrivalSpeed="12.25" duration="40.00" routeLength="130.18" waitingTime="14.00" waitingCount="2" stopTime="0.00" timeLoss="33.49" rerouteNo="0" devices="tripinfo_south4220_141" vType="DEFAULT_VEHTYPE" speedFactor="1.16" vaporized=""/>
    <tripinfo id="4221n4219s_167" depart="80.00" departLane="-620463733_0" departPos="5.10" departSpeed="0.00" departDelay="6.00" arrival="131.00" arrivalLane="547625725_0" arrivalPos="73.62" arrivalSpeed="20.81" duration="51.00" routeLength="724.41" waitingTime="0.00" waitingCount="0" stopTime="0.00" timeLoss="31.80" rerouteNo="0" devices="tripinfo_4221n4219s_167" vType="DEFAULT_VEHTYPE" speedFactor="1.03" vaporized=""/>
    <tripinfo id="north4221_19" depart="9.00" departLane="-620463733_0" departPos="5.10" departSpeed="0.00" departDelay="0.00" arrival="134.00" arrivalLane="28594060#4_0" arrivalPos="123.22" arrivalSpeed="44.35" duration="125.00" routeLength="979.20" waitingTime="65.00" waitingCount="2" stopTime="0.00" timeLoss="106.90" rerouteNo="0" devices="tripinfo_north4221_19" vType="DEFAULT_VEHTYPE" speedFactor="1.16" vaporized=""/>
    <tripinfo id="north4221_7" depart="2.00" departLane="-620463733_0" departPos="5.10" departSpeed="0.00" departDelay="0.00" arrival="136.00" arrivalLane="28594060#4_0" arrivalPos="123.22" arrivalSpeed="41.49" duration="134.00" routeLength="979.20" waitingTime="71.00" waitingCount="2" stopTime="0.00" timeLoss="114.98" rerouteNo="0" devices="tripinfo_north4221_7" vType="DEFAULT_VEHTYPE" speedFactor="0.89" vaporized=""/>
    <tripinfo id="north4221_25" depart="13.00" departLane="-620463733_0" departPos="5.10" departSpeed="0.00" departDelay="0.00" arrival="137.00" arrivalLane="28594060#4_1" arrivalPos="123.22" arrivalSpeed="43.79" duration="124.00" routeLength="979.20" waitingTime="60.00" waitingCount="2" stopTime="0.00" timeLoss="104.40" rerouteNo="0" devices="tripinfo_north4221_25" vType="DEFAULT_VEHTYPE" speedFactor="0.87" vaporized=""/>
    <tripinfo id="south4219_195" depart="89.00" departLane="620377506_0" departPos="5.10" departSpeed="0.00" departDelay="0.00" arrival="137.00" arrivalLane="547625725_1" arrivalPos="73.62" arrivalSpeed="23.21" duration="48.00" routeLength="287.99" waitingTime="20.00" waitingCount="1" stopTime="0.00" timeLoss="42.24" rerouteNo="0" devices="tripinfo_south4219_195" vType="DEFAULT_VEHTYPE" speedFactor="0.84" vaporized=""/>
    <tripinfo id="north4221_60" depart="31.00" departLane="-620463733_0" departPos="5.10" departSpeed="0.00" departDelay="5.00" arrival="138.00" arrivalLane="28594060#4_0" arrivalPos="123.22" arrivalSpeed="42.87" duration="107.00" routeLength="979.20" waitingTime="43.00" waitingCount="2" stopTime="0.00" timeLoss="88.76" rerouteNo="0" devices="tripinfo_north4221_60" vType="DEFAULT_VEHTYPE" speedFactor="1.08" vaporized=""/>
    <tripinfo id="south4219_173" depart="78.00" departLane="620377506_0" departPos="5.10" departSpeed="0.00" departDelay="0.00" arrival="138.00" arrivalLane="547625725_0" arrivalPos="73.62" arrivalSpeed="25.37" duration="60.00" routeLength="287.99" waitingTime="33.00" waitingCount="1" stopTime="0.00" timeLoss="54.56" rerouteNo="0" devices="tripinfo_south4219_173" vType="DEFAULT_VEHTYPE" speedFactor="1.14" vaporized=""/>
    <tripinfo id="north4221_72" depart="40.00" departLane="-620463733_0" departPos="5.10" departSpeed="0.00" departDelay="8.00" arrival="139.00" arrivalLane="28594060#4_1" arrivalPos="123.22" arrivalSpeed="42.24" duration="99.00" routeLength="979.20" waitingTime="32.00" waitingCount="2" stopTime="0.00" timeLoss="80.70" rerouteNo="0" devices="tripinfo_north4221_72" vType="DEFAULT_VEHTYPE" speedFactor="0.94" vaporized=""/>
    <tripinfo id="north4221_62" depart="34.00" departLane="-620463733_0" departPos="5.10" departSpeed="0.00" departDelay="7.00" arrival="140.00" arrivalLane="28594060#4_0" arrivalPos="123.22" arrivalSpeed="41.79" duration="106.00" routeLength="979.20" waitingTime="40.00" waitingCount="2" stopTime="0.00" timeLoss="87.71" rerouteNo="0" devices="tripinfo_north4221_62" vType="DEFAULT_VEHTYPE" speedFactor="1.02" vaporized=""/>
    <tripinfo id="south4220_148" depart="93.00" departLane="gneE10_0" departPos="5.10" departSpeed="0.00" departDelay="28.00" arrival="140.00" arrivalLane="gneE41_0" arrivalPos="28.67" arrivalSpeed="13.09" duration="47.00" routeLength="130.18" waitingTime="18.00" waitingCount="3" stopTime="0.00" timeLoss="38.80" rerouteNo="0" devices="tripinfo_south4220_148" vType="DEFAULT_VEHTYPE" speedFactor="0.97" vaporized=""/>
    <tripinfo id="south4219_210" depart="96.00" departLane="620377506_0" departPos="5.10" departSpeed="0.00" departDelay="0.00" arrival="140.00" arrivalLane="547625725_0" arrivalPos="73.62" arrivalSpeed="24.21" duration="44.00" routeLength="287.99" waitingTime="16.00" waitingCount="1" stopTime="0.00" timeLoss="38.51" rerouteNo="0" devices="tripinfo_south4219_210" vType="DEFAULT_VEHTYPE" speedFactor="1.10" vaporized=""/>
    <tripinfo id="south4219_220" depart="100.00" departLane="620377506_0" departPos="5.10" departSpeed="0.00" departDelay="0.00" arrival="140.00" arrivalLane="547625725_1" arrivalPos="73.62" arrivalSpeed="23.68" duration="40.00" routeLength="287.99" waitingTime="11.00" waitingCount="1" stopTime="0.00" timeLoss="34.56" rerouteNo="0" devices="tripinfo_south4219_220" vType="DEFAULT_VEHTYPE" speedFactor="1.00" vaporized=""/>
    <tripinfo id="south4219_245" depart="109.00" departLane="620377506_0" departPos="5.10" departSpeed="0.00" departDelay="0.00" arrival="141.00" arrivalLane="547625725_0" arrivalPos="73.62" arrivalSpeed="23.26" duration="32.00" routeLength="287.99" waitingTime="5.00" waitingCount="1" stopTime="0.00" timeLoss="26.65" rerouteNo="0" devices="tripinfo_south4219_245" vType="DEFAULT_VEHTYPE" speedFactor="1.01" vaporized=""/>
    <tripinfo id="south4219_255" depart="112.00" departLane="620377506_0" departPos="5.10" departSpeed="0.00" departDelay="0.00" arrival="142.00" arrivalLane="547625725_1" arrivalPos="73.62" arrivalSpeed="23.56" duration="30.00" routeLength="287.99" waitingTime="0.00" waitingCount="0" stopTime="0.00" timeLoss="23.38" rerouteNo="0" devices="tripinfo_south4219_255" vType="DEFAULT_VEHTYPE" speedFactor="0.71" vaporized=""/>
    <tripinfo id="south4219_258" depart="115.00" departLane="620377506_0" departPos="5.10" departSpeed="0.00" departDelay="1.00" arrival="143.00" arrivalLane="547625725_0" arrivalPos="73.62" arrivalSpeed="22.81" duration="28.00" routeLength="287.99" waitingTime="0.00" waitingCount="0" stopTime="0.00" timeLoss="22.65" rerouteNo="0" devices="tripinfo_south4219_258" vType="DEFAULT_VEHTYPE" speedFactor="1.01" vaporized=""/>
    <tripinfo id="south4220_157" depart="102.00" departLane="gneE10_0" departPos="5.10" departSpeed="0.00" departDelay="32.00" arrival="146.00" arrivalLane="gneE41_0" arrivalPos="28.67" arrivalSpeed="13.72" duration="44.00" routeLength="130.18" waitingTime="14.00" waitingCount="2" stopTime="0.00" timeLoss="36.89" rerouteNo="0" devices="tripinfo_south4220_157" vType="DEFAULT_VEHTYPE" speedFactor="1.08" vaporized=""/>
    <tripinfo id="south4220_175" depart="108.00" departLane="gneE10_0" departPos="5.10" departSpeed="0.00" departDelay="27.00" arrival="149.00" arrivalLane="gneE41_0" arrivalPos="28.67" arrivalSpeed="12.60" duration="41.00" routeLength="130.18" waitingTime="13.00" waitingCount="2" stopTime="0.00" timeLoss="32.32" rerouteNo="0" devices="tripinfo_south4220_175" vType="DEFAULT_VEHTYPE" speedFactor="0.92" vaporized=""/>
    <tripinfo id="south4220_186" depart="124.00" departLane="gneE10_0" departPos="5.10" departSpeed="0.00" departDelay="39.00" arrival="151.00" arrivalLane="gneE41_0" arrivalPos="28.67" arrivalSpeed="14.05" duration="27.00" routeLength="130.18" waitingTime="4.00" waitingCount="2" stopTime="0.00" timeLoss="19.94" rerouteNo="0" devices="tripinfo_south4220_186" vType="DEFAULT_VEHTYPE" speedFactor="1.08" vaporized=""/>
    <tripinfo id="north4221_68" depart="37.00" departLane="-620463733_0" departPos="5.10" departSpeed="0.00" departDelay="6.00" arrival="152.00" arrivalLane="28594060#4_0" arrivalPos="123.22" arrivalSpeed="42.35" duration="115.00" routeLength="979.20" waitingTime="55.00" waitingCount="2" stopTime="0.00" timeLoss="96.68" rerouteNo="0" devices="tripinfo_north4221_68" vType="DEFAULT_VEHTYPE" speedFactor="1.04" vaporized=""/>
    <tripinfo id="north4221_85" depart="43.00" departLane="-620463733_0" departPos="5.10" departSpeed="0.00" departDelay="5.00" arrival="152.00" arrivalLane="28594060#4_1" arrivalPos="123.22" arrivalSpeed="40.81" duration="109.00" routeLength="979.20" waitingTime="46.00" waitingCount="2" stopTime="0.00" timeLoss="90.97" rerouteNo="0" devices="tripinfo_north4221_85" vType="DEFAULT_VEHTYPE" speedFactor="0.98" vaporized=""/>
    <tripinfo id="north4221_111" depart="52.00" departLane="-620463733_0" departPos="5.10" departSpeed="0.00" departDelay="6.00" arrival="154.00" arrivalLane="28594060#4_1" arrivalPos="123.22" arrivalSpeed="43.67" duration="102.00" routeLength="979.20" waitingTime="43.00" waitingCount="1" stopTime="0.00" timeLoss="82.70" rerouteNo="0" devices="tripinfo_north4221_111" vType="DEFAULT_VEHTYPE" speedFactor="0.87" vaporized=""/>