<?xml version="1.0" encoding="UTF-8"?>

<!-- generated on 07/12/20 11:09:47 by Eclipse SUMO GUI Version 1.5.0
<configuration xmlns:xsi="http://www.w3.org/2001/XMLSchema-instance" xsi:noNamespaceSchemaLocation="http://sumo.dlr.de/xsd/sumoConfiguration.xsd">

    <input>
        <net-file value="data/osm.net.xml"/>
        <route-files value="data/osm.rou.xml"/>
        <additional-files value="data/osm.det.xml"/>
    </input>

    <output>
        <tripinfo-output value="tripinfoEDF.xml"/>
    </output>

    <time>
        <begin value="0"/>
    </time>

    <processing>
        <no-internal-links value="true"/>
    </processing>

    <report>
        <verbose value="true"/>
        <no-step-log value="true"/>
    </report>

    <traci_server>
        <remote-port value="60787"/>
    </traci_server>

</configuration>
-->

<tripinfos xmlns:xsi="http://www.w3.org/2001/XMLSchema-instance" xsi:noNamespaceSchemaLocation="http://sumo.dlr.de/xsd/tripinfo_file.xsd">
    <tripinfo id="north4219_6" depart="2.00" departLane="620377515_0" departPos="5.10" departSpeed="0.00" departDelay="0.00" arrival="17.00" arrivalLane="620377501#0_1" arrivalPos="20.24" arrivalSpeed="28.08" duration="15.00" routeLength="207.90" waitingTime="0.00" waitingCount="0" stopTime="0.00" timeLoss="10.98" rerouteNo="0" devices="tripinfo_north4219_6" vType="type1" speedFactor="1.05" vaporized=""/>
    <tripinfo id="nw4235_0" depart="0.00" departLane="-628341438#1_0" departPos="5.10" departSpeed="0.00" departDelay="0.00" arrival="19.00" arrivalLane="619523287#1_0" arrivalPos="83.27" arrivalSpeed="29.93" duration="19.00" routeLength="265.87" waitingTime="0.00" waitingCount="0" stopTime="0.00" timeLoss="14.08" rerouteNo="0" devices="tripinfo_nw4235_0" vType="type1" speedFactor="1.06" vaporized=""/>
    <tripinfo id="north4219_8" depart="5.00" departLane="620377515_0" departPos="5.10" departSpeed="0.00" departDelay="2.00" arrival="20.00" arrivalLane="620377501#0_1" arrivalPos="20.24" arrivalSpeed="26.08" duration="15.00" routeLength="207.90" waitingTime="0.00" waitingCount="0" stopTime="0.00" timeLoss="11.19" rerouteNo="0" devices="tripinfo_north4219_8" vType="type1" speedFactor="0.94" vaporized=""/>
    <tripinfo id="south4219_18" depart="8.00" departLane="620377506_0" departPos="5.10" departSpeed="0.00" departDelay="0.00" arrival="21.00" arrivalLane="547625725_0" arrivalPos="73.62" arrivalSpeed="26.04" duration="13.00" routeLength="195.73" waitingTime="0.00" waitingCount="0" stopTime="0.00" timeLoss="9.46" rerouteNo="0" devices="tripinfo_south4219_18" vType="type1" speedFactor="0.94" vaporized=""/>
    <tripinfo id="nw4235_10" depart="4.00" departLane="-628341438#1_0" departPos="5.10" departSpeed="0.00" departDelay="0.00" arrival="23.00" arrivalLane="619523287#1_0" arrivalPos="83.27" arrivalSpeed="28.28" duration="19.00" routeLength="265.87" waitingTime="0.00" waitingCount="0" stopTime="0.00" timeLoss="14.20" rerouteNo="0" devices="tripinfo_nw4235_10" vType="type1" speedFactor="1.09" vaporized=""/>
    <tripinfo id="north4219_24" depart="13.00" departLane="620377515_0" departPos="5.10" departSpeed="0.00" departDelay="0.00" arrival="27.00" arrivalLane="620377501#0_1" arrivalPos="20.24" arrivalSpeed="29.38" duration="14.00" routeLength="207.90" waitingTime="0.00" waitingCount="0" stopTime="0.00" timeLoss="9.67" rerouteNo="0" devices="tripinfo_north4219_24" vType="type1" speedFactor="0.83" vaporized=""/>
    <tripinfo id="north4219_28" depart="16.00" departLane="620377515_0" departPos="5.10" departSpeed="0.00" departDelay="1.00" arrival="30.00" arrivalLane="620377501#0_1" arrivalPos="20.24" arrivalSpeed="29.05" duration="14.00" routeLength="207.90" waitingTime="0.00" waitingCount="0" stopTime="0.00" timeLoss="10.05" rerouteNo="0" devices="tripinfo_north4219_28" vType="type1" speedFactor="1.13" vaporized=""/>
    <tripinfo id="south4221_9" depart="3.00" departLane="-28594060#4_0" departPos="5.10" departSpeed="0.00" departDelay="0.00" arrival="33.00" arrivalLane="620463733_0" arrivalPos="133.76" arrivalSpeed="51.37" duration="30.00" routeLength="875.34" waitingTime="0.00" waitingCount="0" stopTime="0.00" timeLoss="12.43" rerouteNo="0" devices="tripinfo_south4221_9" vType="type1" speedFactor="0.86" vaporized=""/>
    <tripinfo id="south4219_46" depart="22.00" departLane="620377506_0" departPos="5.10" departSpeed="0.00" departDelay="0.00" arrival="37.00" arrivalLane="547625725_0" arrivalPos="73.62" arrivalSpeed="27.90" duration="15.00" routeLength="195.73" waitingTime="0.00" waitingCount="0" stopTime="0.00" timeLoss="10.98" rerouteNo="0" devices="tripinfo_south4219_46" vType="type1" speedFactor="1.00" vaporized=""/>
    <tripinfo id="north4219_38" depart="23.00" departLane="620377515_0" departPos="5.10" departSpeed="0.00" departDelay="5.00" arrival="38.00" arrivalLane="620377501#0_1" arrivalPos="20.24" arrivalSpeed="27.86" duration="15.00" routeLength="207.90" waitingTime="0.00" waitingCount="0" stopTime="0.00" timeLoss="11.26" rerouteNo="0" devices="tripinfo_north4219_38" vType="type1" speedFactor="1.10" vaporized=""/>
    <tripinfo id="nw4235_41" depart="21.00" departLane="-628341438#1_0" departPos="5.10" departSpeed="0.00" departDelay="0.00" arrival="40.00" arrivalLane="619523287#1_0" arrivalPos="83.27" arrivalSpeed="28.85" duration="19.00" routeLength="265.87" waitingTime="0.00" waitingCount="0" stopTime="0.00" timeLoss="13.99" rerouteNo="0" devices="tripinfo_nw4235_41" vType="type1" speedFactor="0.96" vaporized=""/>
    <tripinfo id="nw4235_52" depart="24.00" departLane="-628341438#1_0" departPos="5.10" departSpeed="0.00" departDelay="0.00" arrival="43.00" arrivalLane="619523287#1_0" arrivalPos="83.27" arrivalSpeed="28.66" duration="19.00" routeLength="265.87" waitingTime="0.00" waitingCount="0" stopTime="0.00" timeLoss="14.00" rerouteNo="0" devices="tripinfo_nw4235_52" vType="type1" speedFactor="1.02" vaporized=""/>
    <tripinfo id="4219n4235w_31" depart="19.00" departLane="620377515_0" departPos="5.10" departSpeed="0.00" departDelay="3.00" arrival="46.00" arrivalLane="619523287#1_0" arrivalPos="83.27" arrivalSpeed="39.02" duration="27.00" routeLength="464.09" waitingTime="0.00" waitingCount="0" stopTime="0.00" timeLoss="18.19" rerouteNo="0" devices="tripinfo_4219n4235w_31" vType="type1" speedFactor="1.15" vaporized=""/>
    <tripinfo id="4219s4221e_20" depart="10.00" departLane="620377506_0" departPos="5.10" departSpeed="0.00" departDelay="1.00" arrival="50.00" arrivalLane="28573015#6_0" arrivalPos="68.82" arrivalSpeed="43.94" duration="40.00" routeLength="682.15" waitingTime="0.00" waitingCount="0" stopTime="0.00" timeLoss="26.60" rerouteNo="0" devices="tripinfo_4219s4221e_20" vType="type1" speedFactor="1.02" vaporized=""/>
    <tripinfo id="nw4235_65" depart="28.00" departLane="-628341438#1_0" departPos="5.10" departSpeed="0.00" departDelay="0.00" arrival="54.00" arrivalLane="619523287#1_0" arrivalPos="83.27" arrivalSpeed="28.15" duration="26.00" routeLength="265.87" waitingTime="2.00" waitingCount="1" stopTime="0.00" timeLoss="20.48" rerouteNo="0" devices="tripinfo_nw4235_65" vType="type1" speedFactor="0.88" vaporized=""/>
    <tripinfo id="se4235_3" depart="6.00" departLane="619523290#0_0" departPos="5.10" departSpeed="0.00" departDelay="5.00" arrival="55.00" arrivalLane="628341438#1_0" arrivalPos="36.44" arrivalSpeed="14.96" duration="49.00" routeLength="366.85" waitingTime="20.00" waitingCount="1" stopTime="0.00" timeLoss="42.36" rerouteNo="0" devices="tripinfo_se4235_3" vType="type1" speedFactor="1.08" vaporized=""/>
    <tripinfo id="se4235_5" depart="10.00" departLane="619523290#0_0" departPos="5.10" departSpeed="0.00" departDelay="8.00" arrival="57.00" arrivalLane="628341438#1_0" arrivalPos="36.44" arrivalSpeed="16.21" duration="47.00" routeLength="366.85" waitingTime="17.00" waitingCount="1" stopTime="0.00" timeLoss="39.39" rerouteNo="0" devices="tripinfo_se4235_5" vType="type1" speedFactor="0.83" vaporized=""/>
    <tripinfo id="north4219_50" depart="26.00" departLane="620377515_0" departPos="5.10" departSpeed="0.00" departDelay="3.00" arrival="60.00" arrivalLane="620377501#0_1" arrivalPos="20.24" arrivalSpeed="22.85" duration="34.00" routeLength="207.90" waitingTime="12.00" waitingCount="1" stopTime="0.00" timeLoss="29.82" rerouteNo="0" devices="tripinfo_north4219_50" vType="type1" speedFactor="0.85" vaporized=""/>
    <tripinfo id="north4219_54" depart="29.00" departLane="620377515_0" departPos="5.10" departSpeed="0.00" departDelay="4.00" arrival="60.00" arrivalLane="620377501#0_2" arrivalPos="20.24" arrivalSpeed="21.82" duration="31.00" routeLength="207.90" waitingTime="7.00" waitingCount="1" stopTime="0.00" timeLoss="27.11" rerouteNo="0" devices="tripinfo_north4219_54" vType="type1" speedFactor="1.00" vaporized=""/>
    <tripinfo id="south4220_14" depart="6.00" departLane="gneE10_0" departPos="5.10" departSpeed="0.00" departDelay="0.00" arrival="61.00" arrivalLane="gneE41_0" arrivalPos="28.67" arrivalSpeed="10.13" duration="55.00" routeLength="64.36" waitingTime="41.00" waitingCount="1" stopTime="0.00" timeLoss="51.75" rerouteNo="0" devices="tripinfo_south4220_14" vType="type1" speedFactor="0.99" vaporized=""/>
    <tripinfo id="se4235_15" depart="17.00" departLane="619523290#0_0" departPos="5.10" departSpeed="0.00" departDelay="10.00" arrival="61.00" arrivalLane="628341438#1_0" arrivalPos="36.44" arrivalSpeed="16.22" duration="44.00" routeLength="366.85" waitingTime="13.00" waitingCount="1" stopTime="0.00" timeLoss="36.98" rerouteNo="0" devices="tripinfo_se4235_15" vType="type1" speedFactor="0.93" vaporized=""/>
    <tripinfo id="nw4235_93" depart="41.00" departLane="-628341438#1_0" departPos="5.10" departSpeed="0.00" departDelay="0.00" arrival="61.00" arrivalLane="619523287#1_0" arrivalPos="83.27" arrivalSpeed="28.55" duration="20.00" routeLength="265.87" waitingTime="0.00" waitingCount="0" stopTime="0.00" timeLoss="14.69" rerouteNo="0" devices="tripinfo_nw4235_93" vType="type1" speedFactor="0.92" vaporized=""/>
    <tripinfo id="se4235_22" depart="27.00" departLane="619523290#0_0" departPos="5.10" departSpeed="0.00" departDelay="16.00" arrival="62.00" arrivalLane="628341438#1_0" arrivalPos="36.44" arrivalSpeed="16.70" duration="35.00" routeLength="366.85" waitingTime="3.00" waitingCount="1" stopTime="0.00" timeLoss="28.24" rerouteNo="0" devices="tripinfo_se4235_22" vType="type1" speedFactor="0.98" vaporized=""/>
    <tripinfo id="north4219_66" depart="32.00" departLane="620377515_0" departPos="5.10" departSpeed="0.00" departDelay="4.00" arrival="62.00" arrivalLane="620377501#0_1" arrivalPos="20.24" arrivalSpeed="22.96" duration="30.00" routeLength="207.90" waitingTime="8.00" waitingCount="1" stopTime="0.00" timeLoss="25.91" rerouteNo="0" devices="tripinfo_north4219_66" vType="type1" speedFactor="0.91" vaporized=""/>
    <tripinfo id="north4219_77" depart="36.00" departLane="620377515_0" departPos="5.10" departSpeed="0.00" departDelay="0.00" arrival="63.00" arrivalLane="620377501#0_2" arrivalPos="20.24" arrivalSpeed="24.13" duration="27.00" routeLength="207.90" waitingTime="3.00" waitingCount="1" stopTime="0.00" timeLoss="22.98" rerouteNo="0" devices="tripinfo_north4219_77" vType="type1" speedFactor="0.98" vaporized=""/>
    <tripinfo id="north4219_91" depart="40.00" departLane="620377515_0" departPos="5.10" departSpeed="0.00" departDelay="0.00" arrival="64.00" arrivalLane="620377501#0_1" arrivalPos="20.24" arrivalSpeed="22.77" duration="24.00" routeLength="207.90" waitingTime="0.00" waitingCount="0" stopTime="0.00" timeLoss="19.78" rerouteNo="0" devices="tripinfo_north4219_91" vType="type1" speedFactor="0.89" vaporized=""/>
    <tripinfo id="north4219_104" depart="44.00" departLane="620377515_0" departPos="5.10" departSpeed="0.00" departDelay="0.00" arrival="65.00" arrivalLane="620377501#0_2" arrivalPos="20.24" arrivalSpeed="23.20" duration="21.00" routeLength="207.90" waitingTime="0.00" waitingCount="0" stopTime="0.00" timeLoss="16.74" rerouteNo="0" devices="tripinfo_north4219_104" vType="type1" speedFactor="0.89" vaporized=""/>
    <tripinfo id="se4235_32" depart="40.00" departLane="619523290#0_0" departPos="5.10" departSpeed="0.00" departDelay="23.00" arrival="66.00" arrivalLane="628341438#1_0" arrivalPos="36.44" arrivalSpeed="17.63" duration="26.00" routeLength="366.85" waitingTime="0.00" waitingCount="0" stopTime="0.00" timeLoss="19.16" rerouteNo="0" devices="tripinfo_se4235_32" vType="type1" speedFactor="1.01" vaporized=""/>
    <tripinfo id="4221n4219s_40" depart="20.00" departLane="-620463733_0" departPos="5.10" departSpeed="0.00" departDelay="0.00" arrival="66.00" arrivalLane="547625725_0" arrivalPos="73.62" arrivalSpeed="19.16" duration="46.00" routeLength="597.97" waitingTime="0.00" waitingCount="0" stopTime="0.00" timeLoss="31.39" rerouteNo="0" devices="tripinfo_4221n4219s_40" vType="type1" speedFactor="1.03" vaporized=""/>
    <tripinfo id="4221s4220n_82" depart="37.00" departLane="-28594060#4_0" departPos="5.10" departSpeed="0.00" departDelay="0.00" arrival="71.00" arrivalLane="gneE44_0" arrivalPos="38.65" arrivalSpeed="13.68" duration="34.00" routeLength="729.21" waitingTime="0.00" waitingCount="0" stopTime="0.00" timeLoss="16.52" rerouteNo="0" devices="tripinfo_4221s4220n_82" vType="type1" speedFactor="1.02" vaporized=""/>
    <tripinfo id="4235e4219s_2" depart="3.00" departLane="619523290#0_0" departPos="5.10" departSpeed="0.00" departDelay="3.00" arrival="75.00" arrivalLane="547625725_0" arrivalPos="73.62" arrivalSpeed="17.48" duration="72.00" routeLength="687.48" waitingTime="20.00" waitingCount="2" stopTime="0.00" timeLoss="59.56" rerouteNo="0" devices="tripinfo_4235e4219s_2" vType="type1" speedFactor="1.01" vaporized=""/>
    <tripinfo id="4235e4219s_16" depart="18.00" departLane="619523290#0_0" departPos="5.10" departSpeed="0.00" departDelay="11.00" arrival="75.00" arrivalLane="547625725_1" arrivalPos="73.62" arrivalSpeed="18.58" duration="57.00" routeLength="687.48" waitingTime="3.00" waitingCount="1" stopTime="0.00" timeLoss="43.88" rerouteNo="0" devices="tripinfo_4235e4219s_16" vType="type1" speedFactor="0.88" vaporized=""/>
    <tripinfo id="4235e4219n_1" depart="0.00" departLane="619523290#0_0" departPos="5.10" departSpeed="0.00" departDelay="0.00" arrival="76.00" arrivalLane="620377501#0_1" arrivalPos="20.24" arrivalSpeed="20.47" duration="76.00" routeLength="724.98" waitingTime="17.00" waitingCount="3" stopTime="0.00" timeLoss="62.95" rerouteNo="0" devices="tripinfo_4235e4219n_1" vType="type1" speedFactor="0.94" vaporized=""/>
    <tripinfo id="4221n4220s_88" depart="46.00" departLane="-620463733_0" departPos="5.10" departSpeed="0.00" departDelay="8.00" arrival="76.00" arrivalLane="gneE41_0" arrivalPos="28.67" arrivalSpeed="13.69" duration="30.00" routeLength="443.83" waitingTime="0.00" waitingCount="0" stopTime="0.00" timeLoss="19.77" rerouteNo="0" devices="tripinfo_4221n4220s_88" vType="type1" speedFactor="1.01" vaporized=""/>
    <tripinfo id="4235n4219n_27" depart="13.00" departLane="-628341438#1_0" departPos="5.10" departSpeed="0.00" departDelay="0.00" arrival="77.00" arrivalLane="620377501#0_0" arrivalPos="20.24" arrivalSpeed="22.69" duration="64.00" routeLength="473.89" waitingTime="21.00" waitingCount="1" stopTime="0.00" timeLoss="54.92" rerouteNo="0" devices="tripinfo_4235n4219n_27" vType="type1" speedFactor="0.95" vaporized=""/>
    <tripinfo id="4235e4219n_11" depart="11.00" departLane="619523290#0_0" departPos="5.10" departSpeed="0.00" departDelay="7.00" arrival="78.00" arrivalLane="620377501#0_0" arrivalPos="20.24" arrivalSpeed="21.72" duration="67.00" routeLength="724.98" waitingTime="7.00" waitingCount="2" stopTime="0.00" timeLoss="53.93" rerouteNo="0" devices="tripinfo_4235e4219n_11" vType="type1" speedFactor="1.03" vaporized=""/>
    <tripinfo id="4235e4219n_26" depart="31.00" departLane="619523290#0_0" departPos="5.10" departSpeed="0.00" departDelay="18.00" arrival="81.00" arrivalLane="620377501#0_1" arrivalPos="20.24" arrivalSpeed="21.77" duration="50.00" routeLength="724.98" waitingTime="0.00" waitingCount="0" stopTime="0.00" timeLoss="36.53" rerouteNo="0" devices="tripinfo_4235e4219n_26" vType="type1" speedFactor="0.92" vaporized=""/>
    <tripinfo id="4235e4219n_29" depart="34.00" departLane="619523290#0_0" departPos="5.10" departSpeed="0.00" departDelay="19.00" arrival="82.00" arrivalLane="620377501#0_0" arrivalPos="20.24" arrivalSpeed="20.33" duration="48.00" routeLength="724.98" waitingTime="0.00" waitingCount="0" stopTime="0.00" timeLoss="34.67" rerouteNo="0" devices="tripinfo_4235e4219n_29" vType="type1" speedFactor="0.93" vaporized=""/>
    <tripinfo id="4235e4219n_33" depart="41.00" departLane="619523290#0_0" departPos="5.10" departSpeed="0.00" departDelay="24.00" arrival="85.00" arrivalLane="620377501#0_0" arrivalPos="20.24" arrivalSpeed="21.78" duration="44.00" routeLength="724.98" waitingTime="0.00" waitingCount="0" stopTime="0.00" timeLoss="30.84" rerouteNo="0" devices="tripinfo_4235e4219n_33" vType="type1" speedFactor="1.17" vaporized=""/>
    <tripinfo id="south4219_76" depart="36.00" departLane="620377506_0" departPos="5.10" departSpeed="0.00" departDelay="1.00" arrival="86.00" arrivalLane="547625725_1" arrivalPos="73.62" arrivalSpeed="18.22" duration="50.00" routeLength="195.73" waitingTime="26.00" waitingCount="1" stopTime="0.00" timeLoss="46.39" rerouteNo="0" devices="tripinfo_south4219_76" vType="type1" speedFactor="1.03" vaporized=""/>
    <tripinfo id="south4219_74" depart="33.00" departLane="620377506_0" departPos="5.10" departSpeed="0.00" departDelay="0.00" arrival="87.00" arrivalLane="547625725_0" arrivalPos="73.62" arrivalSpeed="17.94" duration="54.00" routeLength="195.73" waitingTime="32.00" waitingCount="1" stopTime="0.00" timeLoss="50.18" rerouteNo="0" devices="tripinfo_south4219_74" vType="type1" speedFactor="0.96" vaporized=""/>
    <tripinfo id="se4221_94" depart="41.00" departLane="-28594060#4_0" departPos="5.10" departSpeed="0.00" departDelay="0.00" arrival="87.00" arrivalLane="28573015#6_0" arrivalPos="68.82" arrivalSpeed="36.82" duration="46.00" routeLength="955.26" waitingTime="0.00" waitingCount="0" stopTime="0.00" timeLoss="28.43" rerouteNo="0" devices="tripinfo_se4221_94" vType="type1" speedFactor="1.09" vaporized=""/>
    <tripinfo id="4235e4219n_39" depart="47.00" departLane="619523290#0_0" departPos="5.10" departSpeed="0.00" departDelay="28.00" arrival="88.00" arrivalLane="620377501#0_0" arrivalPos="20.24" arrivalSpeed="21.77" duration="41.00" routeLength="724.98" waitingTime="0.00" waitingCount="0" stopTime="0.00" timeLoss="27.40" rerouteNo="0" devices="tripinfo_4235e4219n_39" vType="type1" speedFactor="0.90" vaporized=""/>
    <tripinfo id="south4219_84" depart="39.00" departLane="620377506_0" departPos="5.10" departSpeed="0.00" departDelay="1.00" arrival="88.00" arrivalLane="547625725_0" arrivalPos="73.62" arrivalSpeed="16.97" duration="49.00" routeLength="195.73" waitingTime="27.00" waitingCount="1" stopTime="0.00" timeLoss="45.38" rerouteNo="0" devices="tripinfo_south4219_84" vType="type1" speedFactor="1.15" vaporized=""/>
    <tripinfo id="south4219_96" depart="43.00" departLane="620377506_0" departPos="5.10" departSpeed="0.00" departDelay="1.00" arrival="88.00" arrivalLane="547625725_1" arrivalPos="73.62" arrivalSpeed="18.16" duration="45.00" routeLength="195.73" waitingTime="21.00" waitingCount="1" stopTime="0.00" timeLoss="41.46" rerouteNo="0" devices="tripinfo_south4219_96" vType="type1" speedFactor="1.01" vaporized=""/>
    <tripinfo id="south4219_133" depart="59.00" departLane="620377506_0" departPos="5.10" departSpeed="0.00" departDelay="0.00" arrival="90.00" arrivalLane="547625725_0" arrivalPos="73.62" arrivalSpeed="20.06" duration="31.00" routeLength="195.73" waitingTime="9.00" waitingCount="1" stopTime="0.00" timeLoss="27.19" rerouteNo="0" devices="tripinfo_south4219_133" vType="type1" speedFactor="1.04" vaporized=""/>
    <tripinfo id="south4219_150" depart="66.00" departLane="620377506_0" departPos="5.10" departSpeed="0.00" departDelay="0.00" arrival="90.00" arrivalLane="547625725_1" arrivalPos="73.62" arrivalSpeed="19.27" duration="24.00" routeLength="195.73" waitingTime="0.00" waitingCount="0" stopTime="0.00" timeLoss="20.42" rerouteNo="0" devices="tripinfo_south4219_150" vType="type1" speedFactor="0.96" vaporized=""/>
    <tripinfo id="4235e4219n_42" depart="50.00" departLane="619523290#0_0" departPos="5.10" departSpeed="0.00" departDelay="29.00" arrival="91.00" arrivalLane="620377501#0_0" arrivalPos="20.24" arrivalSpeed="20.39" duration="41.00" routeLength="724.98" waitingTime="0.00" waitingCount="0" stopTime="0.00" timeLoss="27.91" rerouteNo="0" devices="tripinfo_4235e4219n_42" vType="type1" speedFactor="1.09" vaporized=""/>
    <tripinfo id="south4219_152" depart="69.00" departLane="620377506_0" departPos="5.10" departSpeed="0.00" departDelay="2.00" arrival="91.00" arrivalLane="547625725_0" arrivalPos="73.62" arrivalSpeed="19.81" duration="22.00" routeLength="195.73" waitingTime="0.00" waitingCount="0" stopTime="0.00" timeLoss="18.39" rerouteNo="0" devices="tripinfo_south4219_152" vType="type1" speedFactor="1.07" vaporized=""/>
    <tripinfo id="south4219_156" depart="72.00" departLane="620377506_0" departPos="5.10" departSpeed="0.00" departDelay="2.00" arrival="92.00" arrivalLane="547625725_1" arrivalPos="73.62" arrivalSpeed="20.17" duration="20.00" routeLength="195.73" waitingTime="0.00" waitingCount="0" stopTime="0.00" timeLoss="16.30" rerouteNo="0" devices="tripinfo_south4219_156" vType="type1" speedFactor="1.18" vaporized=""/>
    <tripinfo id="south4219_173" depart="78.00" departLane="620377506_0" departPos="5.10" departSpeed="0.00" departDelay="0.00" arrival="94.00" arrivalLane="547625725_0" arrivalPos="73.62" arrivalSpeed="23.87" duration="16.00" routeLength="195.73" waitingTime="0.00" waitingCount="0" stopTime="0.00" timeLoss="12.12" rerouteNo="0" devices="tripinfo_south4219_173" vType="type1" speedFactor="1.14" vaporized=""/>
    <tripinfo id="nw4235_123" depart="55.00" departLane="-628341438#1_0" departPos="5.10" departSpeed="0.00" departDelay="0.00" arrival="96.00" arrivalLane="619523287#1_0" arrivalPos="83.27" arrivalSpeed="28.15" duration="41.00" routeLength="265.87" waitingTime="15.00" waitingCount="1" stopTime="0.00" timeLoss="36.00" rerouteNo="0" devices="tripinfo_nw4235_123" vType="type1" speedFactor="1.02" vaporized=""/>
    <tripinfo id="nw4235_132" depart="59.00" departLane="-628341438#1_0" departPos="5.10" departSpeed="0.00" departDelay="0.00" arrival="97.00" arrivalLane="619523287#1_1" arrivalPos="83.27" arrivalSpeed="29.21" duration="38.00" routeLength="265.87" waitingTime="14.00" waitingCount="1" stopTime="0.00" timeLoss="32.99" rerouteNo="0" devices="tripinfo_nw4235_132" vType="type1" speedFactor="0.96" vaporized=""/>
    <tripinfo id="south4221_118" depart="51.00" departLane="-28594060#4_0" departPos="5.10" departSpeed="0.00" departDelay="0.00" arrival="100.00" arrivalLane="620463733_0" arrivalPos="133.76" arrivalSpeed="33.41" duration="49.00" routeLength="875.34" waitingTime="0.00" waitingCount="0" stopTime="0.00" timeLoss="32.92" rerouteNo="0" devices="tripinfo_south4221_118" vType="type1" speedFactor="0.99" vaporized=""/>
    <tripinfo id="4219s4235w_161" depart="75.00" departLane="620377506_0" departPos="5.10" departSpeed="0.00" departDelay="5.00" arrival="100.00" arrivalLane="619523287#1_1" arrivalPos="83.27" arrivalSpeed="38.91" duration="25.00" routeLength="504.90" waitingTime="0.00" waitingCount="0" stopTime="0.00" timeLoss="15.30" rerouteNo="0" devices="tripinfo_4219s4235w_161" vType="type1" speedFactor="1.08" vaporized=""/>
    <tripinfo id="south4221_122" depart="54.00" departLane="-28594060#4_0" departPos="5.10" departSpeed="0.00" departDelay="0.00" arrival="101.00" arrivalLane="620463733_0" arrivalPos="133.76" arrivalSpeed="32.81" duration="47.00" routeLength="875.34" waitingTime="0.00" waitingCount="0" stopTime="0.00" timeLoss="31.23" rerouteNo="0" devices="tripinfo_south4221_122" vType="type1" speedFactor="1.03" vaporized=""/>
    <tripinfo id="nw4235_166" depart="74.00" departLane="-628341438#1_0" departPos="5.10" departSpeed="0.00" departDelay="0.00" arrival="102.00" arrivalLane="619523287#1_0" arrivalPos="83.27" arrivalSpeed="29.12" duration="28.00" routeLength="265.87" waitingTime="0.00" waitingCount="0" stopTime="0.00" timeLoss="22.68" rerouteNo="0" devices="tripinfo_nw4235_166" vType="type1" speedFactor="1.00" vaporized=""/>
    <tripinfo id="south4221_130" depart="57.00" departLane="-28594060#4_0" departPos="5.10" departSpeed="0.00" departDelay="0.00" arrival="103.00" arrivalLane="620463733_0" arrivalPos="133.76" arrivalSpeed="35.79" duration="46.00" routeLength="875.34" waitingTime="0.00" waitingCount="0" stopTime="0.00" timeLoss="29.76" rerouteNo="0" devices="tripinfo_south4221_130" vType="type1" speedFactor="1.03" vaporized=""/>
    <tripinfo id="4219s4235w_58" depart="25.00" departLane="620377506_0" departPos="5.10" departSpeed="0.00" departDelay="0.00" arrival="105.00" arrivalLane="619523287#1_0" arrivalPos="83.27" arrivalSpeed="30.69" duration="80.00" routeLength="504.90" waitingTime="34.00" waitingCount="2" stopTime="0.00" timeLoss="70.50" rerouteNo="0" devices="tripinfo_4219s4235w_58" vType="type1" speedFactor="1.02" vaporized=""/>
    <tripinfo id="4219s4235w_95" depart="42.00" departLane="620377506_0" departPos="5.10" departSpeed="0.00" departDelay="1.00" arrival="106.00" arrivalLane="619523287#1_1" arrivalPos="83.27" arrivalSpeed="29.70" duration="64.00" routeLength="504.90" waitingTime="22.00" waitingCount="1" stopTime="0.00" timeLoss="54.65" rerouteNo="0" devices="tripinfo_4219s4235w_95" vType="type1" speedFactor="1.06" vaporized=""/>
    <tripinfo id="nw4235_189" depart="86.00" departLane="-628341438#1_0" departPos="5.10" departSpeed="0.00" departDelay="0.00" arrival="107.00" arrivalLane="619523287#1_0" arrivalPos="83.27" arrivalSpeed="29.15" duration="21.00" routeLength="265.87" waitingTime="0.00" waitingCount="0" stopTime="0.00" timeLoss="15.68" rerouteNo="0" devices="tripinfo_nw4235_189" vType="type1" speedFactor="0.97" vaporized=""/>
    <tripinfo id="4219s4235w_180" depart="82.00" departLane="620377506_0" departPos="5.10" departSpeed="0.00" departDelay="0.00" arrival="108.00" arrivalLane="619523287#1_1" arrivalPos="83.27" arrivalSpeed="34.64" duration="26.00" routeLength="504.90" waitingTime="0.00" waitingCount="0" stopTime="0.00" timeLoss="16.44" rerouteNo="0" devices="tripinfo_4219s4235w_180" vType="type1" speedFactor="1.10" vaporized=""/>
    <tripinfo id="4221n4219n_37" depart="17.00" departLane="-620463733_0" departPos="5.10" departSpeed="0.00" departDelay="0.00" arrival="109.00" arrivalLane="620377501#0_1" arrivalPos="20.24" arrivalSpeed="22.79" duration="92.00" routeLength="631.24" waitingTime="43.00" waitingCount="1" stopTime="0.00" timeLoss="77.79" rerouteNo="0" devices="tripinfo_4221n4219n_37" vType="type1" speedFactor="1.18" vaporized=""/>
    <tripinfo id="4221n4219n_57" depart="25.00" departLane="-620463733_0" departPos="5.10" departSpeed="0.00" departDelay="0.00" arrival="109.00" arrivalLane="620377501#0_2" arrivalPos="20.24" arrivalSpeed="21.87" duration="84.00" routeLength="631.24" waitingTime="36.00" waitingCount="1" stopTime="0.00" timeLoss="69.84" rerouteNo="0" devices="tripinfo_4221n4219n_57" vType="type1" speedFactor="1.14" vaporized=""/>
    <tripinfo id="se4221_153" depart="67.00" departLane="-28594060#4_0" departPos="5.10" departSpeed="0.00" departDelay="0.00" arrival="113.00" arrivalLane="28573015#6_0" arrivalPos="68.82" arrivalSpeed="38.43" duration="46.00" routeLength="955.26" waitingTime="0.00" waitingCount="0" stopTime="0.00" timeLoss="28.37" rerouteNo="0" devices="tripinfo_se4221_153" vType="type1" speedFactor="0.93" vaporized=""/>
    <tripinfo id="4235e4219s_43" depart="53.00" departLane="619523290#0_0" departPos="5.10" departSpeed="0.00" departDelay="32.00" arrival="115.00" arrivalLane="547625725_0" arrivalPos="73.62" arrivalSpeed="24.06" duration="62.00" routeLength="687.48" waitingTime="17.00" waitingCount="1" stopTime="0.00" timeLoss="49.34" rerouteNo="0" devices="tripinfo_4235e4219s_43" vType="type1" speedFactor="1.04" vaporized=""/>
    <tripinfo id="se4235_51" depart="67.00" departLane="619523290#0_0" departPos="5.10" departSpeed="0.00" departDelay="43.00" arrival="115.00" arrivalLane="628341438#1_0" arrivalPos="36.44" arrivalSpeed="15.08" duration="48.00" routeLength="366.85" waitingTime="19.00" waitingCount="1" stopTime="0.00" timeLoss="41.34" rerouteNo="0" devices="tripinfo_se4235_51" vType="type1" speedFactor="1.17" vaporized=""/>
    <tripinfo id="4235e4219s_79" depart="89.00" departLane="619523290#0_0" departPos="5.10" departSpeed="0.00" departDelay="53.00" arrival="119.00" arrivalLane="547625725_0" arrivalPos="73.62" arrivalSpeed="30.27" duration="30.00" routeLength="687.48" waitingTime="0.00" waitingCount="0" stopTime="0.00" timeLoss="17.37" rerouteNo="0" devices="tripinfo_4235e4219s_79" vType="type1" speedFactor="1.09" vaporized=""/>
    <tripinfo id="4235n4219n_98" depart="44.00" departLane="-628341438#1_0" departPos="5.10" departSpeed="0.00" departDelay="2.00" arrival="120.00" arrivalLane="620377501#0_0" arrivalPos="20.24" arrivalSpeed="21.26" duration="76.00" routeLength="473.89" waitingTime="34.00" waitingCount="2" stopTime="0.00" timeLoss="67.30" rerouteNo="0" devices="tripinfo_4235n4219n_98" vType="type1" speedFactor="1.12" vaporized=""/>
    <tripinfo id="nw4235_215" depart="99.00" departLane="-628341438#1_0" departPos="5.10" departSpeed="0.00" departDelay="0.00" arrival="121.00" arrivalLane="619523287#1_0" arrivalPos="83.27" arrivalSpeed="30.17" duration="22.00" routeLength="265.87" waitingTime="0.00" waitingCount="0" stopTime="0.00" timeLoss="16.67" rerouteNo="0" devices="tripinfo_nw4235_215" vType="type1" speedFactor="1.09" vaporized=""/>