<?xml version="1.0" encoding="UTF-8"?>

<!-- generated on 09/15/20 01:09:47 by Eclipse SUMO Version 1.5.0
<configuration xmlns:xsi="http://www.w3.org/2001/XMLSchema-instance" xsi:noNamespaceSchemaLocation="http://sumo.dlr.de/xsd/sumoConfiguration.xsd">

    <input>
        <net-file value="../simulation/osm.net.xml"/>
        <route-files value="../simulation/osm.rou.xml"/>
        <additional-files value="../simulation/osm.det.xml"/>
    </input>

    <output>
        <summary-output value="summary.xml"/>
        <tripinfo-output value="tripinfoRL.xml"/>
    </output>

    <time>
        <begin value="0"/>
    </time>

    <processing>
        <no-internal-links value="true"/>
    </processing>

    <report>
        <verbose value="true"/>
        <no-step-log value="true"/>
    </report>

    <traci_server>
        <remote-port value="49955"/>
    </traci_server>

</configuration>
-->

<tripinfos xmlns:xsi="http://www.w3.org/2001/XMLSchema-instance" xsi:noNamespaceSchemaLocation="http://sumo.dlr.de/xsd/tripinfo_file.xsd">
    <tripinfo id="nw4235_0" depart="0.00" departLane="-628341438#1_0" departPos="5.10" departSpeed="0.00" departDelay="0.00" arrival="22.00" arrivalLane="619523287#1_0" arrivalPos="83.27" arrivalSpeed="16.48" duration="22.00" routeLength="265.87" waitingTime="0.00" waitingCount="0" stopTime="0.00" timeLoss="5.60" rerouteNo="0" devices="tripinfo_nw4235_0" vType="type1" speedFactor="1.06" vaporized=""/>
    <tripinfo id="nw4235_10" depart="4.00" departLane="-628341438#1_0" departPos="5.10" departSpeed="0.00" departDelay="0.00" arrival="25.00" arrivalLane="619523287#1_0" arrivalPos="83.27" arrivalSpeed="16.89" duration="21.00" routeLength="265.87" waitingTime="0.00" waitingCount="0" stopTime="0.00" timeLoss="5.62" rerouteNo="0" devices="tripinfo_nw4235_10" vType="type1" speedFactor="1.09" vaporized=""/>
    <tripinfo id="se4235_3" depart="6.00" departLane="619523290#0_0" departPos="5.10" departSpeed="0.00" departDelay="5.00" arrival="44.00" arrivalLane="628341438#1_0" arrivalPos="36.44" arrivalSpeed="14.68" duration="38.00" routeLength="366.85" waitingTime="6.00" waitingCount="1" stopTime="0.00" timeLoss="16.12" rerouteNo="0" devices="tripinfo_se4235_3" vType="type1" speedFactor="1.08" vaporized=""/>
    <tripinfo id="nw4235_41" depart="21.00" departLane="-628341438#1_0" departPos="5.10" departSpeed="0.00" departDelay="0.00" arrival="44.00" arrivalLane="619523287#1_0" arrivalPos="83.27" arrivalSpeed="15.76" duration="23.00" routeLength="265.87" waitingTime="0.00" waitingCount="0" stopTime="0.00" timeLoss="4.78" rerouteNo="0" devices="tripinfo_nw4235_41" vType="type1" speedFactor="0.96" vaporized=""/>
    <tripinfo id="nw4235_52" depart="24.00" departLane="-628341438#1_0" departPos="5.10" departSpeed="0.00" departDelay="0.00" arrival="46.00" arrivalLane="619523287#1_0" arrivalPos="83.27" arrivalSpeed="15.87" duration="22.00" routeLength="265.87" waitingTime="0.00" waitingCount="0" stopTime="0.00" timeLoss="5.06" rerouteNo="0" devices="tripinfo_nw4235_52" vType="type1" speedFactor="1.02" vaporized=""/>
    <tripinfo id="se4235_5" depart="10.00" departLane="619523290#0_0" departPos="5.10" departSpeed="0.00" departDelay="8.00" arrival="47.00" arrivalLane="628341438#1_0" arrivalPos="36.44" arrivalSpeed="10.87" duration="37.00" routeLength="366.85" waitingTime="0.00" waitingCount="0" stopTime="0.00" timeLoss="9.02" rerouteNo="0" devices="tripinfo_se4235_5" vType="type1" speedFactor="0.83" vaporized=""/>
    <tripinfo id="se4235_15" depart="17.00" departLane="619523290#0_0" departPos="5.10" departSpeed="0.00" departDelay="10.00" arrival="49.00" arrivalLane="628341438#1_0" arrivalPos="36.44" arrivalSpeed="11.79" duration="32.00" routeLength="366.85" waitingTime="0.00" waitingCount="0" stopTime="0.00" timeLoss="7.21" rerouteNo="0" devices="tripinfo_se4235_15" vType="type1" speedFactor="0.93" vaporized=""/>
    <tripinfo id="north4219_6" depart="2.00" departLane="620377515_0" departPos="5.10" departSpeed="0.00" departDelay="0.00" arrival="52.00" arrivalLane="620377501#0_0" arrivalPos="20.24" arrivalSpeed="17.05" duration="50.00" routeLength="923.62" waitingTime="0.00" waitingCount="0" stopTime="0.00" timeLoss="6.97" rerouteNo="0" devices="tripinfo_north4219_6" vType="type1" speedFactor="1.05" vaporized=""/>
    <tripinfo id="nw4235_65" depart="28.00" departLane="-628341438#1_0" departPos="5.10" departSpeed="0.00" departDelay="0.00" arrival="53.00" arrivalLane="619523287#1_0" arrivalPos="83.27" arrivalSpeed="13.53" duration="25.00" routeLength="265.87" waitingTime="0.00" waitingCount="0" stopTime="0.00" timeLoss="5.51" rerouteNo="0" devices="tripinfo_nw4235_65" vType="type1" speedFactor="0.88" vaporized=""/>
    <tripinfo id="se4235_22" depart="27.00" departLane="619523290#0_0" departPos="5.10" departSpeed="0.00" departDelay="16.00" arrival="57.00" arrivalLane="628341438#1_0" arrivalPos="36.44" arrivalSpeed="13.33" duration="30.00" routeLength="366.85" waitingTime="0.00" waitingCount="0" stopTime="0.00" timeLoss="5.99" rerouteNo="0" devices="tripinfo_se4235_22" vType="type1" speedFactor="0.98" vaporized=""/>
    <tripinfo id="4235n4219n_27" depart="13.00" departLane="-628341438#1_0" departPos="5.10" departSpeed="0.00" departDelay="0.00" arrival="62.00" arrivalLane="620377501#0_0" arrivalPos="20.24" arrivalSpeed="15.12" duration="49.00" routeLength="473.89" waitingTime="2.00" waitingCount="2" stopTime="0.00" timeLoss="17.49" rerouteNo="0" devices="tripinfo_4235n4219n_27" vType="type1" speedFactor="0.95" vaporized=""/>
    <tripinfo id="4235e4219s_2" depart="3.00" departLane="619523290#0_0" departPos="5.10" departSpeed="0.00" departDelay="3.00" arrival="63.00" arrivalLane="547625725_0" arrivalPos="73.62" arrivalSpeed="21.57" duration="60.00" routeLength="687.48" waitingTime="8.00" waitingCount="1" stopTime="0.00" timeLoss="20.04" rerouteNo="0" devices="tripinfo_4235e4219s_2" vType="type1" speedFactor="1.01" vaporized=""/>
    <tripinfo id="nw4235_93" depart="41.00" departLane="-628341438#1_0" departPos="5.10" departSpeed="0.00" departDelay="0.00" arrival="64.00" arrivalLane="619523287#1_0" arrivalPos="83.27" arrivalSpeed="14.55" duration="23.00" routeLength="265.87" waitingTime="0.00" waitingCount="0" stopTime="0.00" timeLoss="4.20" rerouteNo="0" devices="tripinfo_nw4235_93" vType="type1" speedFactor="0.92" vaporized=""/>
    <tripinfo id="north4221_19" depart="9.00" departLane="-620463733_0" departPos="5.10" departSpeed="0.00" departDelay="0.00" arrival="65.00" arrivalLane="28594060#4_0" arrivalPos="123.22" arrivalSpeed="19.24" duration="56.00" routeLength="885.44" waitingTime="0.00" waitingCount="0" stopTime="0.00" timeLoss="11.29" rerouteNo="0" devices="tripinfo_north4221_19" vType="type1" speedFactor="1.16" vaporized=""/>
    <tripinfo id="4235e4219n_1" depart="0.00" departLane="619523290#0_0" departPos="5.10" departSpeed="0.00" departDelay="0.00" arrival="69.00" arrivalLane="620377501#0_0" arrivalPos="20.24" arrivalSpeed="14.89" duration="69.00" routeLength="724.98" waitingTime="9.00" waitingCount="1" stopTime="0.00" timeLoss="22.49" rerouteNo="0" devices="tripinfo_4235e4219n_1" vType="type1" speedFactor="0.94" vaporized=""/>
    <tripinfo id="north4221_7" depart="2.00" departLane="-620463733_0" departPos="5.10" departSpeed="0.00" departDelay="0.00" arrival="69.00" arrivalLane="28594060#4_0" arrivalPos="123.22" arrivalSpeed="14.24" duration="67.00" routeLength="885.44" waitingTime="0.00" waitingCount="0" stopTime="0.00" timeLoss="9.15" rerouteNo="0" devices="tripinfo_north4221_7" vType="type1" speedFactor="0.89" vaporized=""/>
    <tripinfo id="south4221_9" depart="3.00" departLane="-28594060#4_0" departPos="5.10" departSpeed="0.00" departDelay="0.00" arrival="70.00" arrivalLane="620463733_0" arrivalPos="133.76" arrivalSpeed="13.97" duration="67.00" routeLength="875.34" waitingTime="0.00" waitingCount="0" stopTime="0.00" timeLoss="5.45" rerouteNo="0" devices="tripinfo_south4221_9" vType="type1" speedFactor="0.86" vaporized=""/>
    <tripinfo id="4235e4219n_11" depart="11.00" departLane="619523290#0_0" departPos="5.10" departSpeed="0.00" departDelay="7.00" arrival="72.00" arrivalLane="620377501#0_0" arrivalPos="20.24" arrivalSpeed="16.72" duration="61.00" routeLength="724.98" waitingTime="2.00" waitingCount="1" stopTime="0.00" timeLoss="18.37" rerouteNo="0" devices="tripinfo_4235e4219n_11" vType="type1" speedFactor="1.03" vaporized=""/>
    <tripinfo id="4221n4219s_40" depart="20.00" departLane="-620463733_0" departPos="5.10" departSpeed="0.00" departDelay="0.00" arrival="80.00" arrivalLane="547625725_0" arrivalPos="73.62" arrivalSpeed="19.41" duration="60.00" routeLength="599.97" waitingTime="6.00" waitingCount="1" stopTime="0.00" timeLoss="25.62" rerouteNo="0" devices="tripinfo_4221n4219s_40" vType="type1" speedFactor="1.03" vaporized=""/>
    <tripinfo id="north4221_25" depart="13.00" departLane="-620463733_0" departPos="5.10" departSpeed="0.00" departDelay="0.00" arrival="83.00" arrivalLane="28594060#4_0" arrivalPos="123.22" arrivalSpeed="13.24" duration="70.00" routeLength="885.44" waitingTime="0.00" waitingCount="0" stopTime="0.00" timeLoss="10.44" rerouteNo="0" devices="tripinfo_north4221_25" vType="type1" speedFactor="0.87" vaporized=""/>
    <tripinfo id="4220s4219n_45" depart="21.00" departLane="gneE10_0" departPos="5.10" departSpeed="0.00" departDelay="0.00" arrival="83.00" arrivalLane="620377501#0_1" arrivalPos="20.24" arrivalSpeed="18.04" duration="62.00" routeLength="663.15" waitingTime="7.00" waitingCount="1" stopTime="0.00" timeLoss="19.99" rerouteNo="0" devices="tripinfo_4220s4219n_45" vType="type1" speedFactor="1.09" vaporized=""/>
    <tripinfo id="4220s4219n_36" depart="17.00" departLane="gneE10_0" departPos="5.10" departSpeed="0.00" departDelay="0.00" arrival="84.00" arrivalLane="620377501#0_0" arrivalPos="20.24" arrivalSpeed="15.42" duration="67.00" routeLength="663.15" waitingTime="9.00" waitingCount="1" stopTime="0.00" timeLoss="20.06" rerouteNo="0" devices="tripinfo_4220s4219n_36" vType="type1" speedFactor="0.97" vaporized=""/>
    <tripinfo id="se4235_32" depart="40.00" departLane="619523290#0_0" departPos="5.10" departSpeed="0.00" departDelay="23.00" arrival="87.00" arrivalLane="628341438#1_0" arrivalPos="36.44" arrivalSpeed="13.12" duration="47.00" routeLength="366.85" waitingTime="13.00" waitingCount="1" stopTime="0.00" timeLoss="23.50" rerouteNo="0" devices="tripinfo_se4235_32" vType="type1" speedFactor="1.01" vaporized=""/>
    <tripinfo id="south4220_14" depart="6.00" departLane="gneE10_0" departPos="5.10" departSpeed="0.00" departDelay="0.00" arrival="88.00" arrivalLane="gneE41_0" arrivalPos="453.36" arrivalSpeed="12.53" duration="82.00" routeLength="896.19" waitingTime="5.00" waitingCount="1" stopTime="0.00" timeLoss="16.47" rerouteNo="0" devices="tripinfo_south4220_14" vType="type1" speedFactor="0.99" vaporized=""/>
    <tripinfo id="north4221_60" depart="31.00" departLane="-620463733_0" departPos="5.10" departSpeed="0.00" departDelay="5.00" arrival="89.00" arrivalLane="28594060#4_0" arrivalPos="123.22" arrivalSpeed="16.77" duration="58.00" routeLength="885.44" waitingTime="0.00" waitingCount="0" stopTime="0.00" timeLoss="10.55" rerouteNo="0" devices="tripinfo_north4221_60" vType="type1" speedFactor="1.08" vaporized=""/>
    <tripinfo id="4235e4219n_26" depart="31.00" departLane="619523290#0_0" departPos="5.10" departSpeed="0.00" departDelay="18.00" arrival="90.00" arrivalLane="620377501#0_0" arrivalPos="20.24" arrivalSpeed="15.04" duration="59.00" routeLength="724.98" waitingTime="1.00" waitingCount="1" stopTime="0.00" timeLoss="10.92" rerouteNo="0" devices="tripinfo_4235e4219n_26" vType="type1" speedFactor="0.92" vaporized=""/>
    <tripinfo id="north4221_62" depart="34.00" departLane="-620463733_0" departPos="5.10" departSpeed="0.00" departDelay="7.00" arrival="96.00" arrivalLane="28594060#4_0" arrivalPos="123.22" arrivalSpeed="15.88" duration="62.00" routeLength="885.44" waitingTime="0.00" waitingCount="0" stopTime="0.00" timeLoss="10.70" rerouteNo="0" devices="tripinfo_north4221_62" vType="type1" speedFactor="1.02" vaporized=""/>
    <tripinfo id="north4221_68" depart="37.00" departLane="-620463733_0" departPos="5.10" departSpeed="0.00" departDelay="6.00" arrival="96.00" arrivalLane="28594060#4_1" arrivalPos="123.22" arrivalSpeed="16.72" duration="59.00" routeLength="885.44" waitingTime="0.00" waitingCount="0" stopTime="0.00" timeLoss="9.87" rerouteNo="0" devices="tripinfo_north4221_68" vType="type1" speedFactor="1.04" vaporized=""/>
    <tripinfo id="4221n4219n_37" depart="17.00" departLane="-620463733_0" departPos="5.10" departSpeed="0.00" departDelay="0.00" arrival="97.00" arrivalLane="620377501#0_0" arrivalPos="20.24" arrivalSpeed="19.14" duration="80.00" routeLength="633.24" waitingTime="19.00" waitingCount="2" stopTime="0.00" timeLoss="47.57" rerouteNo="0" devices="tripinfo_4221n4219n_37" vType="type1" speedFactor="1.18" vaporized=""/>
    <tripinfo id="4221n4219n_57" depart="25.00" departLane="-620463733_0" departPos="5.10" departSpeed="0.00" departDelay="0.00" arrival="97.00" arrivalLane="620377501#0_1" arrivalPos="20.24" arrivalSpeed="19.00" duration="72.00" routeLength="633.24" waitingTime="15.00" waitingCount="2" stopTime="0.00" timeLoss="38.70" rerouteNo="0" devices="tripinfo_4221n4219n_57" vType="type1" speedFactor="1.14" vaporized=""/>
    <tripinfo id="se4221_94" depart="41.00" departLane="-28594060#4_0" departPos="5.10" departSpeed="0.00" departDelay="0.00" arrival="102.00" arrivalLane="28573015#6_0" arrivalPos="68.82" arrivalSpeed="17.61" duration="61.00" routeLength="955.26" waitingTime="0.00" waitingCount="0" stopTime="0.00" timeLoss="7.95" rerouteNo="0" devices="tripinfo_se4221_94" vType="type1" speedFactor="1.09" vaporized=""/>
    <tripinfo id="4235n4219n_98" depart="44.00" departLane="-628341438#1_0" departPos="5.10" departSpeed="0.00" departDelay="2.00" arrival="103.00" arrivalLane="620377501#0_0" arrivalPos="20.24" arrivalSpeed="18.45" duration="59.00" routeLength="473.89" waitingTime="12.00" waitingCount="2" stopTime="0.00" timeLoss="32.82" rerouteNo="0" devices="tripinfo_4235n4219n_98" vType="type1" speedFactor="1.12" vaporized=""/>
    <tripinfo id="north4221_72" depart="40.00" departLane="-620463733_0" departPos="5.10" departSpeed="0.00" departDelay="8.00" arrival="106.00" arrivalLane="28594060#4_0" arrivalPos="123.22" arrivalSpeed="15.41" duration="66.00" routeLength="885.44" waitingTime="0.00" waitingCount="0" stopTime="0.00" timeLoss="11.00" rerouteNo="0" devices="tripinfo_north4221_72" vType="type1" speedFactor="0.94" vaporized=""/>
    <tripinfo id="north4221_85" depart="43.00" departLane="-620463733_0" departPos="5.10" departSpeed="0.00" departDelay="5.00" arrival="106.00" arrivalLane="28594060#4_1" arrivalPos="123.22" arrivalSpeed="15.37" duration="63.00" routeLength="885.44" waitingTime="0.00" waitingCount="0" stopTime="0.00" timeLoss="9.59" rerouteNo="0" devices="tripinfo_north4221_85" vType="type1" speedFactor="0.98" vaporized=""/>
    <tripinfo id="4219n4235w_31" depart="19.00" departLane="620377515_0" departPos="5.10" departSpeed="0.00" departDelay="3.00" arrival="107.00" arrivalLane="619523287#1_0" arrivalPos="83.27" arrivalSpeed="18.69" duration="88.00" routeLength="1174.94" waitingTime="12.00" waitingCount="1" stopTime="0.00" timeLoss="35.78" rerouteNo="0" devices="tripinfo_4219n4235w_31" vType="type1" speedFactor="1.15" vaporized=""/>
    <tripinfo id="4220s4235w_61" depart="28.00" departLane="gneE10_0" departPos="5.10" departSpeed="0.00" departDelay="2.00" arrival="107.00" arrivalLane="619523287#1_1" arrivalPos="83.27" arrivalSpeed="18.22" duration="79.00" routeLength="933.27" waitingTime="9.00" waitingCount="1" stopTime="0.00" timeLoss="24.00" rerouteNo="0" devices="tripinfo_4220s4235w_61" vType="type1" speedFactor="1.12" vaporized=""/>
    <tripinfo id="4221n4235w_59" depart="28.00" departLane="-620463733_0" departPos="5.10" departSpeed="0.00" departDelay="3.00" arrival="108.00" arrivalLane="619523287#1_0" arrivalPos="83.27" arrivalSpeed="15.20" duration="80.00" routeLength="903.36" waitingTime="7.00" waitingCount="1" stopTime="0.00" timeLoss="23.65" rerouteNo="0" devices="tripinfo_4221n4235w_59" vType="type1" speedFactor="0.97" vaporized=""/>
    <tripinfo id="4220s4219n_70" depart="34.00" departLane="gneE10_0" departPos="5.10" departSpeed="0.00" departDelay="3.00" arrival="111.00" arrivalLane="620377501#0_0" arrivalPos="20.24" arrivalSpeed="15.87" duration="77.00" routeLength="663.15" waitingTime="13.00" waitingCount="2" stopTime="0.00" timeLoss="32.69" rerouteNo="0" devices="tripinfo_4220s4219n_70" vType="type1" speedFactor="1.02" vaporized=""/>
    <tripinfo id="4221n4220s_88" depart="46.00" departLane="-620463733_0" departPos="5.10" departSpeed="0.00" departDelay="8.00" arrival="111.00" arrivalLane="gneE41_0" arrivalPos="453.36" arrivalSpeed="13.48" duration="65.00" routeLength="868.52" waitingTime="0.00" waitingCount="0" stopTime="0.00" timeLoss="7.22" rerouteNo="0" devices="tripinfo_4221n4220s_88" vType="type1" speedFactor="1.01" vaporized=""/>
    <tripinfo id="north4221_89" depart="49.00" departLane="-620463733_0" departPos="5.10" departSpeed="0.00" departDelay="10.00" arrival="111.00" arrivalLane="28594060#4_0" arrivalPos="123.22" arrivalSpeed="16.67" duration="62.00" routeLength="885.44" waitingTime="0.00" waitingCount="0" stopTime="0.00" timeLoss="10.85" rerouteNo="0" devices="tripinfo_north4221_89" vType="type1" speedFactor="1.02" vaporized=""/>
    <tripinfo id="4220s4219n_100" depart="42.00" departLane="gneE10_0" departPos="5.10" departSpeed="0.00" departDelay="0.00" arrival="112.00" arrivalLane="620377501#0_1" arrivalPos="20.24" arrivalSpeed="17.26" duration="70.00" routeLength="663.15" waitingTime="7.00" waitingCount="1" stopTime="0.00" timeLoss="26.80" rerouteNo="0" devices="tripinfo_4220s4219n_100" vType="type1" speedFactor="1.07" vaporized=""/>
    <tripinfo id="4220s4235w_64" depart="31.00" departLane="gneE10_0" departPos="5.10" departSpeed="0.00" departDelay="4.00" arrival="113.00" arrivalLane="619523287#1_0" arrivalPos="83.27" arrivalSpeed="14.66" duration="82.00" routeLength="933.27" waitingTime="5.00" waitingCount="1" stopTime="0.00" timeLoss="16.03" rerouteNo="0" devices="tripinfo_4220s4235w_64" vType="type1" speedFactor="0.94" vaporized=""/>
    <tripinfo id="south4220_55" depart="25.00" departLane="gneE10_0" departPos="5.10" departSpeed="0.00" departDelay="0.00" arrival="116.00" arrivalLane="gneE41_0" arrivalPos="453.36" arrivalSpeed="12.56" duration="91.00" routeLength="896.19" waitingTime="12.00" waitingCount="2" stopTime="0.00" timeLoss="25.78" rerouteNo="0" devices="tripinfo_south4220_55" vType="type1" speedFactor="1.00" vaporized=""/>
    <tripinfo id="4235e4219n_42" depart="50.00" departLane="619523290#0_0" departPos="5.10" departSpeed="0.00" departDelay="29.00" arrival="117.00" arrivalLane="620377501#0_0" arrivalPos="20.24" arrivalSpeed="16.98" duration="67.00" routeLength="724.98" waitingTime="4.00" waitingCount="1" stopTime="0.00" timeLoss="26.45" rerouteNo="0" devices="tripinfo_4235e4219n_42" vType="type1" speedFactor="1.09" vaporized=""/>
    <tripinfo id="4235e4219n_29" depart="34.00" departLane="619523290#0_0" departPos="5.10" departSpeed="0.00" departDelay="19.00" arrival="118.00" arrivalLane="620377501#0_0" arrivalPos="20.24" arrivalSpeed="15.45" duration="84.00" routeLength="724.98" waitingTime="21.00" waitingCount="2" stopTime="0.00" timeLoss="36.66" rerouteNo="0" devices="tripinfo_4235e4219n_29" vType="type1" speedFactor="0.93" vaporized=""/>
    <tripinfo id="se4235_51" depart="68.00" departLane="619523290#0_0" departPos="5.10" departSpeed="0.00" departDelay="44.00" arrival="118.00" arrivalLane="628341438#1_0" arrivalPos="36.44" arrivalSpeed="16.09" duration="50.00" routeLength="366.85" waitingTime="19.00" waitingCount="1" stopTime="0.00" timeLoss="29.71" rerouteNo="0" devices="tripinfo_se4235_51" vType="type1" speedFactor="1.17" vaporized=""/>
    <tripinfo id="south4220_101" depart="45.00" departLane="gneE10_0" departPos="5.10" departSpeed="0.00" departDelay="2.00" arrival="121.00" arrivalLane="gneE41_0" arrivalPos="453.36" arrivalSpeed="12.61" duration="76.00" routeLength="896.19" waitingTime="0.00" waitingCount="0" stopTime="0.00" timeLoss="8.45" rerouteNo="0" devices="tripinfo_south4220_101" vType="type1" speedFactor="0.96" vaporized=""/>
    <tripinfo id="4221w4220s_107" depart="44.00" departLane="-28573015#6_0" departPos="5.10" departSpeed="0.00" departDelay="0.00" arrival="124.00" arrivalLane="gneE41_0" arrivalPos="453.36" arrivalSpeed="13.43" duration="80.00" routeLength="955.32" waitingTime="5.00" waitingCount="1" stopTime="0.00" timeLoss="17.81" rerouteNo="0" devices="tripinfo_4221w4220s_107" vType="type1" speedFactor="1.03" vaporized=""/>
    <tripinfo id="4220s4219n_114" depart="57.00" departLane="gneE10_0" departPos="5.10" departSpeed="0.00" departDelay="8.00" arrival="124.00" arrivalLane="620377501#0_0" arrivalPos="20.24" arrivalSpeed="17.67" duration="67.00" routeLength="663.15" waitingTime="8.00" waitingCount="1" stopTime="0.00" timeLoss="25.93" rerouteNo="0" devices="tripinfo_4220s4219n_114" vType="type1" speedFactor="1.10" vaporized=""/>
    <tripinfo id="4220s4219n_103" depart="48.00" departLane="gneE10_0" departPos="5.10" departSpeed="0.00" departDelay="5.00" arrival="126.00" arrivalLane="620377501#0_0" arrivalPos="20.24" arrivalSpeed="15.18" duration="78.00" routeLength="663.15" waitingTime="15.00" waitingCount="2" stopTime="0.00" timeLoss="30.38" rerouteNo="0" devices="tripinfo_4220s4219n_103" vType="type1" speedFactor="0.95" vaporized=""/>
    <tripinfo id="north4221_134" depart="64.00" departLane="-620463733_0" departPos="5.10" departSpeed="0.00" departDelay="5.00" arrival="127.00" arrivalLane="28594060#4_0" arrivalPos="123.22" arrivalSpeed="19.57" duration="63.00" routeLength="885.44" waitingTime="2.00" waitingCount="1" stopTime="0.00" timeLoss="21.05" rerouteNo="0" devices="tripinfo_north4221_134" vType="type1" speedFactor="1.23" vaporized=""/>
    <tripinfo id="4221n4219s_136" depart="67.00" departLane="-620463733_0" departPos="5.10" departSpeed="0.00" departDelay="7.00" arrival="127.00" arrivalLane="547625725_0" arrivalPos="73.62" arrivalSpeed="17.48" duration="60.00" routeLength="599.97" waitingTime="6.00" waitingCount="1" stopTime="0.00" timeLoss="28.54" rerouteNo="0" devices="tripinfo_4221n4219s_136" vType="type1" speedFactor="1.12" vaporized=""/>
    <tripinfo id="south4221_118" depart="51.00" departLane="-28594060#4_0" departPos="5.10" departSpeed="0.00" departDelay="0.00" arrival="129.00" arrivalLane="620463733_0" arrivalPos="133.76" arrivalSpeed="15.48" duration="78.00" routeLength="875.34" waitingTime="13.00" waitingCount="1" stopTime="0.00" timeLoss="24.74" rerouteNo="0" devices="tripinfo_south4221_118" vType="type1" speedFactor="0.99" vaporized=""/>
    <tripinfo id="4221n4219s_167" depart="79.00" departLane="-620463733_0" departPos="5.10" departSpeed="0.00" departDelay="5.00" arrival="129.00" arrivalLane="547625725_0" arrivalPos="73.62" arrivalSpeed="18.75" duration="50.00" routeLength="599.97" waitingTime="0.00" waitingCount="0" stopTime="0.00" timeLoss="15.51" rerouteNo="0" devices="tripinfo_4221n4219s_167" vType="type1" speedFactor="1.03" vaporized=""/>
    <tripinfo id="south4220_109" depart="51.00" departLane="gneE10_0" departPos="5.10" departSpeed="0.00" departDelay="6.00" arrival="130.00" arrivalLane="gneE41_0" arrivalPos="453.36" arrivalSpeed="13.28" duration="79.00" routeLength="896.19" waitingTime="0.00" waitingCount="0" stopTime="0.00" timeLoss="10.85" rerouteNo="0" devices="tripinfo_south4220_109" vType="type1" speedFactor="0.96" vaporized=""/>
    <tripinfo id="4235e4219n_33" depart="41.00" departLane="619523290#0_0" departPos="5.10" departSpeed="0.00" departDelay="24.00" arrival="131.00" arrivalLane="620377501#0_0" arrivalPos="20.24" arrivalSpeed="18.36" duration="90.00" routeLength="724.98" waitingTime="25.00" waitingCount="3" stopTime="0.00" timeLoss="52.70" rerouteNo="0" devices="tripinfo_4235e4219n_33" vType="type1" speedFactor="1.17" vaporized=""/>
    <tripinfo id="south4220_116" depart="60.00" departLane="gneE10_0" departPos="5.10" departSpeed="0.00" departDelay="9.00" arrival="131.00" arrivalLane="gneE41_0" arrivalPos="453.36" arrivalSpeed="13.43" duration="71.00" routeLength="896.19" waitingTime="0.00" waitingCount="0" stopTime="0.00" timeLoss="16.04" rerouteNo="0" devices="tripinfo_south4220_116" vType="type1" speedFactor="1.18" vaporized=""/>
    <tripinfo id="north4221_117" depart="58.00" departLane="-620463733_0" departPos="5.10" departSpeed="0.00" departDelay="7.00" arrival="131.00" arrivalLane="28594060#4_0" arrivalPos="123.22" arrivalSpeed="15.46" duration="73.00" routeLength="885.44" waitingTime="5.00" waitingCount="1" stopTime="0.00" timeLoss="21.61" rerouteNo="0" devices="tripinfo_north4221_117" vType="type1" speedFactor="1.00" vaporized=""/>
    <tripinfo id="south4221_122" depart="54.00" departLane="-28594060#4_0" departPos="5.10" departSpeed="0.00" departDelay="0.00" arrival="131.00" arrivalLane="620463733_0" arrivalPos="133.76" arrivalSpeed="17.10" duration="77.00" routeLength="875.34" waitingTime="12.00" waitingCount="1" stopTime="0.00" timeLoss="25.29" rerouteNo="0" devices="tripinfo_south4221_122" vType="type1" speedFactor="1.03" vaporized=""/>
    <tripinfo id="4235e4219n_39" depart="47.00" departLane="619523290#0_0" departPos="5.10" departSpeed="0.00" departDelay="28.00" arrival="132.00" arrivalLane="620377501#0_0" arrivalPos="20.24" arrivalSpeed="14.55" duration="85.00" routeLength="724.98" waitingTime="16.00" waitingCount="2" stopTime="0.00" timeLoss="36.27" rerouteNo="0" devices="tripinfo_4235e4219n_39" vType="type1" speedFactor="0.90" vaporized=""/>
    <tripinfo id="south4221_130" depart="57.00" departLane="-28594060#4_0" departPos="5.10" departSpeed="0.00" departDelay="0.00" arrival="132.00" arrivalLane="620463733_0" arrivalPos="133.76" arrivalSpeed="17.17" duration="75.00" routeLength="875.34" waitingTime="11.00" waitingCount="1" stopTime="0.00" timeLoss="23.90" rerouteNo="0" devices="tripinfo_south4221_130" vType="type1" speedFactor="1.03" vaporized=""/>
    <tripinfo id="north4221_111" depart="52.00" departLane="-620463733_0" departPos="5.10" departSpeed="0.00" departDelay="6.00" arrival="137.00" arrivalLane="28594060#4_0" arrivalPos="123.22" arrivalSpeed="13.61" duration="85.00" routeLength="885.44" waitingTime="12.00" waitingCount="1" stopTime="0.00" timeLoss="25.51" rerouteNo="0" devices="tripinfo_north4221_111" vType="type1" speedFactor="0.87" vaporized=""/>
    <tripinfo id="north4221_142" depart="69.00" departLane="-620463733_0" departPos="5.10" departSpeed="0.00" departDelay="6.00" arrival="137.00" arrivalLane="28594060#4_1" arrivalPos="123.22" arrivalSpeed="15.33" duration="68.00" routeLength="885.44" waitingTime="0.00" waitingCount="0" stopTime="0.00" timeLoss="12.46" rerouteNo="0" devices="tripinfo_north4221_142" vType="type1" speedFactor="0.94" vaporized=""/>
    <tripinfo id="south4221_178" depart="82.00" departLane="-28594060#4_0" departPos="5.10" departSpeed="0.00" departDelay="0.00" arrival="137.00" arrivalLane="620463733_0" arrivalPos="133.76" arrivalSpeed="17.77" duration="55.00" routeLength="875.34" waitingTime="0.00" waitingCount="0" stopTime="0.00" timeLoss="5.88" rerouteNo="0" devices="tripinfo_south4221_178" vType="type1" speedFactor="1.08" vaporized=""/>
    <tripinfo id="se4221_153" depart="67.00" departLane="-28594060#4_0" departPos="5.10" departSpeed="0.00" departDelay="0.00" arrival="139.00" arrivalLane="28573015#6_0" arrivalPos="68.82" arrivalSpeed="14.70" duration="72.00" routeLength="955.26" waitingTime="0.00" waitingCount="0" stopTime="0.00" timeLoss="9.40" rerouteNo="0" devices="tripinfo_se4221_153" vType="type1" speedFactor="0.93" vaporized=""/>
    <tripinfo id="4221n4219n_115" depart="55.00" departLane="-620463733_0" departPos="5.10" departSpeed="0.00" departDelay="6.00" arrival="140.00" arrivalLane="620377501#0_0" arrivalPos="20.24" arrivalSpeed="14.47" duration="85.00" routeLength="633.24" waitingTime="19.00" waitingCount="3" stopTime="0.00" timeLoss="43.51" rerouteNo="0" devices="tripinfo_4221n4219n_115" vType="type1" speedFactor="0.92" vaporized=""/>
    <tripinfo id="4220s4219n_121" depart="63.00" departLane="gneE10_0" departPos="5.10" departSpeed="0.00" departDelay="11.00" arrival="140.00" arrivalLane="620377501#0_1" arrivalPos="20.24" arrivalSpeed="17.94" duration="77.00" routeLength="663.15" waitingTime="16.00" waitingCount="2" stopTime="0.00" timeLoss="35.37" rerouteNo="0" devices="tripinfo_4220s4219n_121" vType="type1" speedFactor="1.10" vaporized=""/>
    <tripinfo id="north4221_127" depart="61.00" departLane="-620463733_0" departPos="5.10" departSpeed="0.00" departDelay="5.00" arrival="141.00" arrivalLane="28594060#4_0" arrivalPos="123.22" arrivalSpeed="12.40" duration="80.00" routeLength="885.44" waitingTime="3.00" waitingCount="1" stopTime="0.00" timeLoss="17.88" rerouteNo="0" devices="tripinfo_north4221_127" vType="type1" speedFactor="0.82" vaporized=""/>
    <tripinfo id="4235e4219n_53" depart="69.00" departLane="619523290#0_0" departPos="5.10" departSpeed="0.00" departDelay="45.00" arrival="145.00" arrivalLane="620377501#0_0" arrivalPos="20.24" arrivalSpeed="17.48" duration="76.00" routeLength="724.98" waitingTime="15.00" waitingCount="2" stopTime="0.00" timeLoss="35.85" rerouteNo="0" devices="tripinfo_4235e4219n_53" vType="type1" speedFactor="1.10" vaporized=""/>
    <tripinfo id="4235e4219n_47" depart="59.00" departLane="619523290#0_0" departPos="5.10" departSpeed="0.00" departDelay="37.00" arrival="146.00" arrivalLane="620377501#0_0" arrivalPos="20.24" arrivalSpeed="13.84" duration="87.00" routeLength="724.98" waitingTime="15.00" waitingCount="2" stopTime="0.00" timeLoss="37.94" rerouteNo="0" devices="tripinfo_4235e4219n_47" vType="type1" speedFactor="0.90" vaporized=""/>