<?xml version="1.0" encoding="UTF-8"?>

<!-- generated on 09/10/20 22:37:03 by Eclipse SUMO Version 1.5.0
<configuration xmlns:xsi="http://www.w3.org/2001/XMLSchema-instance" xsi:noNamespaceSchemaLocation="http://sumo.dlr.de/xsd/sumoConfiguration.xsd">

    <input>
        <net-file value="../simulation/osm.net.xml"/>
        <route-files value="../simulation/osm.rou.xml"/>
        <additional-files value="../simulation/osm.det.xml"/>
    </input>

    <output>
        <summary-output value="summary.xml"/>
        <tripinfo-output value="tripinfoRL.xml"/>
    </output>

    <time>
        <begin value="0"/>
    </time>

    <processing>
        <no-internal-links value="true"/>
    </processing>

    <report>
        <verbose value="true"/>
        <no-step-log value="true"/>
    </report>

    <traci_server>
        <remote-port value="63206"/>
    </traci_server>

</configuration>
-->

<tripinfos xmlns:xsi="http://www.w3.org/2001/XMLSchema-instance" xsi:noNamespaceSchemaLocation="http://sumo.dlr.de/xsd/tripinfo_file.xsd">
    <tripinfo id="nw4235_0" depart="0.00" departLane="-628341438#1_0" departPos="5.10" departSpeed="0.00" departDelay="0.00" arrival="22.00" arrivalLane="619523287#1_0" arrivalPos="83.27" arrivalSpeed="16.48" duration="22.00" routeLength="265.87" waitingTime="0.00" waitingCount="0" stopTime="0.00" timeLoss="5.60" rerouteNo="0" devices="tripinfo_nw4235_0" vType="type1" speedFactor="1.06" vaporized=""/>
    <tripinfo id="nw4235_10" depart="4.00" departLane="-628341438#1_0" departPos="5.10" departSpeed="0.00" departDelay="0.00" arrival="25.00" arrivalLane="619523287#1_0" arrivalPos="83.27" arrivalSpeed="16.89" duration="21.00" routeLength="265.87" waitingTime="0.00" waitingCount="0" stopTime="0.00" timeLoss="5.62" rerouteNo="0" devices="tripinfo_nw4235_10" vType="type1" speedFactor="1.09" vaporized=""/>
    <tripinfo id="se4235_3" depart="6.00" departLane="619523290#0_0" departPos="5.10" departSpeed="0.00" departDelay="5.00" arrival="44.00" arrivalLane="628341438#1_0" arrivalPos="36.44" arrivalSpeed="14.68" duration="38.00" routeLength="366.85" waitingTime="6.00" waitingCount="1" stopTime="0.00" timeLoss="16.12" rerouteNo="0" devices="tripinfo_se4235_3" vType="type1" speedFactor="1.08" vaporized=""/>
    <tripinfo id="nw4235_41" depart="21.00" departLane="-628341438#1_0" departPos="5.10" departSpeed="0.00" departDelay="0.00" arrival="44.00" arrivalLane="619523287#1_0" arrivalPos="83.27" arrivalSpeed="15.76" duration="23.00" routeLength="265.87" waitingTime="0.00" waitingCount="0" stopTime="0.00" timeLoss="4.78" rerouteNo="0" devices="tripinfo_nw4235_41" vType="type1" speedFactor="0.96" vaporized=""/>
    <tripinfo id="nw4235_52" depart="24.00" departLane="-628341438#1_0" departPos="5.10" departSpeed="0.00" departDelay="0.00" arrival="46.00" arrivalLane="619523287#1_0" arrivalPos="83.27" arrivalSpeed="15.87" duration="22.00" routeLength="265.87" waitingTime="0.00" waitingCount="0" stopTime="0.00" timeLoss="5.06" rerouteNo="0" devices="tripinfo_nw4235_52" vType="type1" speedFactor="1.02" vaporized=""/>
    <tripinfo id="se4235_5" depart="10.00" departLane="619523290#0_0" departPos="5.10" departSpeed="0.00" departDelay="8.00" arrival="47.00" arrivalLane="628341438#1_0" arrivalPos="36.44" arrivalSpeed="10.87" duration="37.00" routeLength="366.85" waitingTime="0.00" waitingCount="0" stopTime="0.00" timeLoss="9.02" rerouteNo="0" devices="tripinfo_se4235_5" vType="type1" speedFactor="0.83" vaporized=""/>
    <tripinfo id="se4235_15" depart="17.00" departLane="619523290#0_0" departPos="5.10" departSpeed="0.00" departDelay="10.00" arrival="49.00" arrivalLane="628341438#1_0" arrivalPos="36.44" arrivalSpeed="11.79" duration="32.00" routeLength="366.85" waitingTime="0.00" waitingCount="0" stopTime="0.00" timeLoss="7.21" rerouteNo="0" devices="tripinfo_se4235_15" vType="type1" speedFactor="0.93" vaporized=""/>
    <tripinfo id="nw4235_65" depart="28.00" departLane="-628341438#1_0" departPos="5.10" departSpeed="0.00" departDelay="0.00" arrival="53.00" arrivalLane="619523287#1_0" arrivalPos="83.27" arrivalSpeed="13.53" duration="25.00" routeLength="265.87" waitingTime="0.00" waitingCount="0" stopTime="0.00" timeLoss="5.51" rerouteNo="0" devices="tripinfo_nw4235_65" vType="type1" speedFactor="0.88" vaporized=""/>
    <tripinfo id="se4235_22" depart="27.00" departLane="619523290#0_0" departPos="5.10" departSpeed="0.00" departDelay="16.00" arrival="56.00" arrivalLane="628341438#1_0" arrivalPos="36.44" arrivalSpeed="13.14" duration="29.00" routeLength="366.85" waitingTime="0.00" waitingCount="0" stopTime="0.00" timeLoss="5.60" rerouteNo="0" devices="tripinfo_se4235_22" vType="type1" speedFactor="0.98" vaporized=""/>
    <tripinfo id="4235n4219n_27" depart="13.00" departLane="-628341438#1_0" departPos="5.10" departSpeed="0.00" departDelay="0.00" arrival="57.00" arrivalLane="620377501#0_0" arrivalPos="20.24" arrivalSpeed="15.66" duration="44.00" routeLength="473.89" waitingTime="1.00" waitingCount="1" stopTime="0.00" timeLoss="13.32" rerouteNo="0" devices="tripinfo_4235n4219n_27" vType="type1" speedFactor="0.95" vaporized=""/>
    <tripinfo id="nw4235_93" depart="41.00" departLane="-628341438#1_0" departPos="5.10" departSpeed="0.00" departDelay="0.00" arrival="64.00" arrivalLane="619523287#1_0" arrivalPos="83.27" arrivalSpeed="14.55" duration="23.00" routeLength="265.87" waitingTime="0.00" waitingCount="0" stopTime="0.00" timeLoss="4.20" rerouteNo="0" devices="tripinfo_nw4235_93" vType="type1" speedFactor="0.92" vaporized=""/>
    <tripinfo id="north4221_19" depart="9.00" departLane="-620463733_0" departPos="5.10" departSpeed="0.00" departDelay="0.00" arrival="65.00" arrivalLane="28594060#4_0" arrivalPos="123.22" arrivalSpeed="19.19" duration="56.00" routeLength="885.44" waitingTime="0.00" waitingCount="0" stopTime="0.00" timeLoss="11.33" rerouteNo="0" devices="tripinfo_north4221_19" vType="type1" speedFactor="1.16" vaporized=""/>
    <tripinfo id="north4221_7" depart="2.00" departLane="-620463733_0" departPos="5.10" departSpeed="0.00" departDelay="0.00" arrival="69.00" arrivalLane="28594060#4_0" arrivalPos="123.22" arrivalSpeed="14.06" duration="67.00" routeLength="885.44" waitingTime="0.00" waitingCount="0" stopTime="0.00" timeLoss="9.34" rerouteNo="0" devices="tripinfo_north4221_7" vType="type1" speedFactor="0.89" vaporized=""/>
    <tripinfo id="4235e4219n_1" depart="0.00" departLane="619523290#0_0" departPos="5.10" departSpeed="0.00" departDelay="0.00" arrival="70.00" arrivalLane="620377501#0_0" arrivalPos="20.24" arrivalSpeed="15.27" duration="70.00" routeLength="724.98" waitingTime="9.00" waitingCount="1" stopTime="0.00" timeLoss="22.68" rerouteNo="0" devices="tripinfo_4235e4219n_1" vType="type1" speedFactor="0.94" vaporized=""/>
    <tripinfo id="south4221_9" depart="3.00" departLane="-28594060#4_0" departPos="5.10" departSpeed="0.00" departDelay="0.00" arrival="70.00" arrivalLane="620463733_0" arrivalPos="133.76" arrivalSpeed="13.97" duration="67.00" routeLength="875.34" waitingTime="0.00" waitingCount="0" stopTime="0.00" timeLoss="5.48" rerouteNo="0" devices="tripinfo_south4221_9" vType="type1" speedFactor="0.86" vaporized=""/>
    <tripinfo id="4235e4219n_11" depart="11.00" departLane="619523290#0_0" departPos="5.10" departSpeed="0.00" departDelay="7.00" arrival="71.00" arrivalLane="620377501#0_1" arrivalPos="20.24" arrivalSpeed="16.93" duration="60.00" routeLength="724.98" waitingTime="2.00" waitingCount="1" stopTime="0.00" timeLoss="16.70" rerouteNo="0" devices="tripinfo_4235e4219n_11" vType="type1" speedFactor="1.03" vaporized=""/>
    <tripinfo id="4221n4219s_40" depart="20.00" departLane="-620463733_0" departPos="5.10" departSpeed="0.00" departDelay="0.00" arrival="80.00" arrivalLane="547625725_0" arrivalPos="73.62" arrivalSpeed="17.85" duration="60.00" routeLength="599.97" waitingTime="6.00" waitingCount="1" stopTime="0.00" timeLoss="25.80" rerouteNo="0" devices="tripinfo_4221n4219s_40" vType="type1" speedFactor="1.03" vaporized=""/>
    <tripinfo id="north4221_25" depart="13.00" departLane="-620463733_0" departPos="5.10" departSpeed="0.00" departDelay="0.00" arrival="83.00" arrivalLane="28594060#4_0" arrivalPos="123.22" arrivalSpeed="14.30" duration="70.00" routeLength="885.44" waitingTime="0.00" waitingCount="0" stopTime="0.00" timeLoss="10.27" rerouteNo="0" devices="tripinfo_north4221_25" vType="type1" speedFactor="0.87" vaporized=""/>
    <tripinfo id="4220s4219n_45" depart="21.00" departLane="gneE10_0" departPos="5.10" departSpeed="0.00" departDelay="0.00" arrival="83.00" arrivalLane="620377501#0_1" arrivalPos="20.24" arrivalSpeed="17.34" duration="62.00" routeLength="663.15" waitingTime="7.00" waitingCount="1" stopTime="0.00" timeLoss="20.33" rerouteNo="0" devices="tripinfo_4220s4219n_45" vType="type1" speedFactor="1.09" vaporized=""/>
    <tripinfo id="nw4235_123" depart="55.00" departLane="-628341438#1_0" departPos="5.10" departSpeed="0.00" departDelay="0.00" arrival="83.00" arrivalLane="619523287#1_0" arrivalPos="83.27" arrivalSpeed="16.77" duration="28.00" routeLength="265.87" waitingTime="0.00" waitingCount="0" stopTime="0.00" timeLoss="11.14" rerouteNo="0" devices="tripinfo_nw4235_123" vType="type1" speedFactor="1.02" vaporized=""/>
    <tripinfo id="4220s4219n_36" depart="17.00" departLane="gneE10_0" departPos="5.10" departSpeed="0.00" departDelay="0.00" arrival="84.00" arrivalLane="620377501#0_0" arrivalPos="20.24" arrivalSpeed="16.13" duration="67.00" routeLength="663.15" waitingTime="9.00" waitingCount="1" stopTime="0.00" timeLoss="20.09" rerouteNo="0" devices="tripinfo_4220s4219n_36" vType="type1" speedFactor="0.97" vaporized=""/>
    <tripinfo id="se4235_32" depart="40.00" departLane="619523290#0_0" departPos="5.10" departSpeed="0.00" departDelay="23.00" arrival="85.00" arrivalLane="628341438#1_0" arrivalPos="36.44" arrivalSpeed="13.75" duration="45.00" routeLength="366.85" waitingTime="12.00" waitingCount="1" stopTime="0.00" timeLoss="21.63" rerouteNo="0" devices="tripinfo_se4235_32" vType="type1" speedFactor="1.01" vaporized=""/>
    <tripinfo id="nw4235_132" depart="59.00" departLane="-628341438#1_0" departPos="5.10" departSpeed="0.00" departDelay="0.00" arrival="87.00" arrivalLane="619523287#1_0" arrivalPos="83.27" arrivalSpeed="15.78" duration="28.00" routeLength="265.87" waitingTime="0.00" waitingCount="0" stopTime="0.00" timeLoss="10.34" rerouteNo="0" devices="tripinfo_nw4235_132" vType="type1" speedFactor="0.96" vaporized=""/>
    <tripinfo id="south4220_14" depart="6.00" departLane="gneE10_0" departPos="5.10" departSpeed="0.00" departDelay="0.00" arrival="88.00" arrivalLane="gneE41_0" arrivalPos="453.36" arrivalSpeed="13.42" duration="82.00" routeLength="896.19" waitingTime="5.00" waitingCount="1" stopTime="0.00" timeLoss="16.52" rerouteNo="0" devices="tripinfo_south4220_14" vType="type1" speedFactor="0.99" vaporized=""/>
    <tripinfo id="north4221_60" depart="31.00" departLane="-620463733_0" departPos="5.10" departSpeed="0.00" departDelay="5.00" arrival="89.00" arrivalLane="28594060#4_0" arrivalPos="123.22" arrivalSpeed="16.98" duration="58.00" routeLength="885.44" waitingTime="0.00" waitingCount="0" stopTime="0.00" timeLoss="10.59" rerouteNo="0" devices="tripinfo_north4221_60" vType="type1" speedFactor="1.08" vaporized=""/>
    <tripinfo id="4235e4219n_26" depart="31.00" departLane="619523290#0_0" departPos="5.10" departSpeed="0.00" departDelay="18.00" arrival="90.00" arrivalLane="620377501#0_0" arrivalPos="20.24" arrivalSpeed="14.07" duration="59.00" routeLength="724.98" waitingTime="0.00" waitingCount="0" stopTime="0.00" timeLoss="10.98" rerouteNo="0" devices="tripinfo_4235e4219n_26" vType="type1" speedFactor="0.92" vaporized=""/>
    <tripinfo id="north4221_62" depart="34.00" departLane="-620463733_0" departPos="5.10" departSpeed="0.00" departDelay="7.00" arrival="96.00" arrivalLane="28594060#4_0" arrivalPos="123.22" arrivalSpeed="16.45" duration="62.00" routeLength="885.44" waitingTime="0.00" waitingCount="0" stopTime="0.00" timeLoss="10.60" rerouteNo="0" devices="tripinfo_north4221_62" vType="type1" speedFactor="1.02" vaporized=""/>
    <tripinfo id="north4221_68" depart="37.00" departLane="-620463733_0" departPos="5.10" departSpeed="0.00" departDelay="6.00" arrival="96.00" arrivalLane="28594060#4_1" arrivalPos="123.22" arrivalSpeed="17.06" duration="59.00" routeLength="885.44" waitingTime="0.00" waitingCount="0" stopTime="0.00" timeLoss="9.78" rerouteNo="0" devices="tripinfo_north4221_68" vType="type1" speedFactor="1.04" vaporized=""/>
    <tripinfo id="nw4235_166" depart="74.00" departLane="-628341438#1_0" departPos="5.10" departSpeed="0.00" departDelay="0.00" arrival="98.00" arrivalLane="619523287#1_0" arrivalPos="83.27" arrivalSpeed="16.48" duration="24.00" routeLength="265.87" waitingTime="0.00" waitingCount="0" stopTime="0.00" timeLoss="6.80" rerouteNo="0" devices="tripinfo_nw4235_166" vType="type1" speedFactor="1.00" vaporized=""/>
    <tripinfo id="north4219_6" depart="2.00" departLane="620377515_0" departPos="5.10" departSpeed="0.00" departDelay="0.00" arrival="100.00" arrivalLane="620377501#0_0" arrivalPos="20.24" arrivalSpeed="16.90" duration="98.00" routeLength="923.62" waitingTime="40.00" waitingCount="1" stopTime="0.00" timeLoss="55.52" rerouteNo="0" devices="tripinfo_north4219_6" vType="type1" speedFactor="1.05" vaporized=""/>
    <tripinfo id="north4219_8" depart="5.00" departLane="620377515_0" departPos="5.10" departSpeed="0.00" departDelay="2.00" arrival="100.00" arrivalLane="620377501#0_1" arrivalPos="20.24" arrivalSpeed="15.50" duration="95.00" routeLength="923.62" waitingTime="34.00" waitingCount="1" stopTime="0.00" timeLoss="47.81" rerouteNo="0" devices="tripinfo_north4219_8" vType="type1" speedFactor="0.94" vaporized=""/>
    <tripinfo id="se4221_94" depart="41.00" departLane="-28594060#4_0" departPos="5.10" departSpeed="0.00" departDelay="0.00" arrival="102.00" arrivalLane="28573015#6_0" arrivalPos="68.82" arrivalSpeed="17.24" duration="61.00" routeLength="955.26" waitingTime="0.00" waitingCount="0" stopTime="0.00" timeLoss="7.73" rerouteNo="0" devices="tripinfo_se4221_94" vType="type1" speedFactor="1.09" vaporized=""/>
    <tripinfo id="4235e4219s_2" depart="3.00" departLane="619523290#0_0" departPos="5.10" departSpeed="0.00" departDelay="3.00" arrival="104.00" arrivalLane="547625725_0" arrivalPos="73.62" arrivalSpeed="19.27" duration="101.00" routeLength="687.48" waitingTime="42.00" waitingCount="2" stopTime="0.00" timeLoss="61.05" rerouteNo="0" devices="tripinfo_4235e4219s_2" vType="type1" speedFactor="1.01" vaporized=""/>
    <tripinfo id="4219n4235w_31" depart="19.00" departLane="620377515_0" departPos="5.10" departSpeed="0.00" departDelay="3.00" arrival="104.00" arrivalLane="619523287#1_0" arrivalPos="83.27" arrivalSpeed="19.09" duration="85.00" routeLength="1174.94" waitingTime="10.00" waitingCount="1" stopTime="0.00" timeLoss="33.10" rerouteNo="0" devices="tripinfo_4219n4235w_31" vType="type1" speedFactor="1.15" vaporized=""/>
    <tripinfo id="4235e4219s_16" depart="18.00" departLane="619523290#0_0" departPos="5.10" departSpeed="0.00" departDelay="11.00" arrival="105.00" arrivalLane="547625725_0" arrivalPos="73.62" arrivalSpeed="18.39" duration="87.00" routeLength="687.48" waitingTime="28.00" waitingCount="1" stopTime="0.00" timeLoss="40.80" rerouteNo="0" devices="tripinfo_4235e4219s_16" vType="type1" speedFactor="0.88" vaporized=""/>
    <tripinfo id="4221n4235w_59" depart="28.00" departLane="-620463733_0" departPos="5.10" departSpeed="0.00" departDelay="3.00" arrival="105.00" arrivalLane="619523287#1_0" arrivalPos="83.27" arrivalSpeed="15.70" duration="77.00" routeLength="903.36" waitingTime="0.00" waitingCount="0" stopTime="0.00" timeLoss="20.95" rerouteNo="0" devices="tripinfo_4221n4235w_59" vType="type1" speedFactor="0.97" vaporized=""/>
    <tripinfo id="north4221_72" depart="40.00" departLane="-620463733_0" departPos="5.10" departSpeed="0.00" departDelay="8.00" arrival="105.00" arrivalLane="28594060#4_0" arrivalPos="123.22" arrivalSpeed="14.96" duration="65.00" routeLength="885.44" waitingTime="0.00" waitingCount="0" stopTime="0.00" timeLoss="10.75" rerouteNo="0" devices="tripinfo_north4221_72" vType="type1" speedFactor="0.94" vaporized=""/>
    <tripinfo id="north4221_85" depart="43.00" departLane="-620463733_0" departPos="5.10" departSpeed="0.00" departDelay="5.00" arrival="106.00" arrivalLane="28594060#4_0" arrivalPos="123.22" arrivalSpeed="15.51" duration="63.00" routeLength="885.44" waitingTime="0.00" waitingCount="0" stopTime="0.00" timeLoss="9.81" rerouteNo="0" devices="tripinfo_north4221_85" vType="type1" speedFactor="0.98" vaporized=""/>
    <tripinfo id="4235n4219n_98" depart="44.00" departLane="-628341438#1_0" departPos="5.10" departSpeed="0.00" departDelay="2.00" arrival="106.00" arrivalLane="620377501#0_0" arrivalPos="20.24" arrivalSpeed="17.74" duration="62.00" routeLength="473.89" waitingTime="17.00" waitingCount="2" stopTime="0.00" timeLoss="35.65" rerouteNo="0" devices="tripinfo_4235n4219n_98" vType="type1" speedFactor="1.12" vaporized=""/>
    <tripinfo id="nw4235_189" depart="86.00" departLane="-628341438#1_0" departPos="5.10" departSpeed="0.00" departDelay="0.00" arrival="108.00" arrivalLane="619523287#1_0" arrivalPos="83.27" arrivalSpeed="15.11" duration="22.00" routeLength="265.87" waitingTime="0.00" waitingCount="0" stopTime="0.00" timeLoss="4.72" rerouteNo="0" devices="tripinfo_nw4235_189" vType="type1" speedFactor="0.97" vaporized=""/>
    <tripinfo id="north4221_89" depart="49.00" departLane="-620463733_0" departPos="5.10" departSpeed="0.00" departDelay="10.00" arrival="109.00" arrivalLane="28594060#4_0" arrivalPos="123.22" arrivalSpeed="16.74" duration="60.00" routeLength="885.44" waitingTime="0.00" waitingCount="0" stopTime="0.00" timeLoss="9.49" rerouteNo="0" devices="tripinfo_north4221_89" vType="type1" speedFactor="1.02" vaporized=""/>
    <tripinfo id="4221n4220s_88" depart="46.00" departLane="-620463733_0" departPos="5.10" departSpeed="0.00" departDelay="8.00" arrival="112.00" arrivalLane="gneE41_0" arrivalPos="453.36" arrivalSpeed="12.74" duration="66.00" routeLength="868.52" waitingTime="0.00" waitingCount="0" stopTime="0.00" timeLoss="7.47" rerouteNo="0" devices="tripinfo_4221n4220s_88" vType="type1" speedFactor="1.01" vaporized=""/>
    <tripinfo id="se4235_51" depart="68.00" departLane="619523290#0_0" departPos="5.10" departSpeed="0.00" departDelay="44.00" arrival="113.00" arrivalLane="628341438#1_0" arrivalPos="36.44" arrivalSpeed="15.15" duration="45.00" routeLength="366.85" waitingTime="12.00" waitingCount="1" stopTime="0.00" timeLoss="24.82" rerouteNo="0" devices="tripinfo_se4235_51" vType="type1" speedFactor="1.17" vaporized=""/>
    <tripinfo id="north4219_28" depart="16.00" departLane="620377515_0" departPos="5.10" departSpeed="0.00" departDelay="1.00" arrival="116.00" arrivalLane="620377501#0_0" arrivalPos="20.24" arrivalSpeed="18.69" duration="100.00" routeLength="923.62" waitingTime="42.00" waitingCount="2" stopTime="0.00" timeLoss="61.10" rerouteNo="0" devices="tripinfo_north4219_28" vType="type1" speedFactor="1.13" vaporized=""/>
    <tripinfo id="south4220_55" depart="25.00" departLane="gneE10_0" departPos="5.10" departSpeed="0.00" departDelay="0.00" arrival="116.00" arrivalLane="gneE41_0" arrivalPos="453.36" arrivalSpeed="13.52" duration="91.00" routeLength="896.19" waitingTime="12.00" waitingCount="2" stopTime="0.00" timeLoss="25.79" rerouteNo="0" devices="tripinfo_south4220_55" vType="type1" speedFactor="1.00" vaporized=""/>
    <tripinfo id="north4219_24" depart="13.00" departLane="620377515_0" departPos="5.10" departSpeed="0.00" departDelay="0.00" arrival="118.00" arrivalLane="620377501#0_0" arrivalPos="20.24" arrivalSpeed="12.61" duration="105.00" routeLength="923.62" waitingTime="35.00" waitingCount="2" stopTime="0.00" timeLoss="51.10" rerouteNo="0" devices="tripinfo_north4219_24" vType="type1" speedFactor="0.83" vaporized=""/>
    <tripinfo id="south4220_101" depart="45.00" departLane="gneE10_0" departPos="5.10" departSpeed="0.00" departDelay="2.00" arrival="121.00" arrivalLane="gneE41_0" arrivalPos="453.36" arrivalSpeed="12.14" duration="76.00" routeLength="896.19" waitingTime="0.00" waitingCount="0" stopTime="0.00" timeLoss="8.35" rerouteNo="0" devices="tripinfo_south4220_101" vType="type1" speedFactor="0.96" vaporized=""/>
    <tripinfo id="4235e4219n_33" depart="41.00" departLane="619523290#0_0" departPos="5.10" departSpeed="0.00" departDelay="24.00" arrival="122.00" arrivalLane="620377501#0_1" arrivalPos="20.24" arrivalSpeed="19.01" duration="81.00" routeLength="724.98" waitingTime="16.00" waitingCount="2" stopTime="0.00" timeLoss="43.28" rerouteNo="0" devices="tripinfo_4235e4219n_33" vType="type1" speedFactor="1.17" vaporized=""/>
    <tripinfo id="nw4235_215" depart="99.00" departLane="-628341438#1_0" departPos="5.10" departSpeed="0.00" departDelay="0.00" arrival="122.00" arrivalLane="619523287#1_0" arrivalPos="83.27" arrivalSpeed="17.80" duration="23.00" routeLength="265.87" waitingTime="0.00" waitingCount="0" stopTime="0.00" timeLoss="7.30" rerouteNo="0" devices="tripinfo_nw4235_215" vType="type1" speedFactor="1.09" vaporized=""/>
    <tripinfo id="4235e4219n_29" depart="34.00" departLane="619523290#0_0" departPos="5.10" departSpeed="0.00" departDelay="19.00" arrival="123.00" arrivalLane="620377501#0_0" arrivalPos="20.24" arrivalSpeed="15.07" duration="89.00" routeLength="724.98" waitingTime="25.00" waitingCount="2" stopTime="0.00" timeLoss="41.69" rerouteNo="0" devices="tripinfo_4235e4219n_29" vType="type1" speedFactor="0.93" vaporized=""/>
    <tripinfo id="4221w4220s_107" depart="44.00" departLane="-28573015#6_0" departPos="5.10" departSpeed="0.00" departDelay="0.00" arrival="124.00" arrivalLane="gneE41_0" arrivalPos="453.36" arrivalSpeed="13.21" duration="80.00" routeLength="955.32" waitingTime="4.00" waitingCount="1" stopTime="0.00" timeLoss="17.88" rerouteNo="0" devices="tripinfo_4221w4220s_107" vType="type1" speedFactor="1.03" vaporized=""/>
    <tripinfo id="nw4235_218" depart="102.00" departLane="-628341438#1_0" departPos="5.10" departSpeed="0.00" departDelay="2.00" arrival="125.00" arrivalLane="619523287#1_0" arrivalPos="83.27" arrivalSpeed="17.23" duration="23.00" routeLength="265.87" waitingTime="0.00" waitingCount="0" stopTime="0.00" timeLoss="6.84" rerouteNo="0" devices="tripinfo_nw4235_218" vType="type1" speedFactor="1.07" vaporized=""/>
    <tripinfo id="south4219_18" depart="8.00" departLane="620377506_0" departPos="5.10" departSpeed="0.00" departDelay="0.00" arrival="127.00" arrivalLane="547625725_0" arrivalPos="73.62" arrivalSpeed="18.57" duration="119.00" routeLength="808.30" waitingTime="57.00" waitingCount="1" stopTime="0.00" timeLoss="68.15" rerouteNo="0" devices="tripinfo_south4219_18" vType="type1" speedFactor="0.94" vaporized=""/>
    <tripinfo id="south4219_46" depart="22.00" departLane="620377506_0" departPos="5.10" departSpeed="0.00" departDelay="0.00" arrival="127.00" arrivalLane="547625725_1" arrivalPos="73.62" arrivalSpeed="18.58" duration="105.00" routeLength="808.30" waitingTime="44.00" waitingCount="1" stopTime="0.00" timeLoss="57.11" rerouteNo="0" devices="tripinfo_south4219_46" vType="type1" speedFactor="1.00" vaporized=""/>
    <tripinfo id="north4221_134" depart="64.00" departLane="-620463733_0" departPos="5.10" departSpeed="0.00" departDelay="5.00" arrival="127.00" arrivalLane="28594060#4_0" arrivalPos="123.22" arrivalSpeed="19.71" duration="63.00" routeLength="885.44" waitingTime="3.00" waitingCount="1" stopTime="0.00" timeLoss="20.98" rerouteNo="0" devices="tripinfo_north4221_134" vType="type1" speedFactor="1.23" vaporized=""/>
    <tripinfo id="south4221_118" depart="51.00" departLane="-28594060#4_0" departPos="5.10" departSpeed="0.00" departDelay="0.00" arrival="129.00" arrivalLane="620463733_0" arrivalPos="133.76" arrivalSpeed="16.48" duration="78.00" routeLength="875.34" waitingTime="14.00" waitingCount="1" stopTime="0.00" timeLoss="24.68" rerouteNo="0" devices="tripinfo_south4221_118" vType="type1" speedFactor="0.99" vaporized=""/>
    <tripinfo id="south4220_109" depart="51.00" departLane="gneE10_0" departPos="5.10" departSpeed="0.00" departDelay="6.00" arrival="130.00" arrivalLane="gneE41_0" arrivalPos="453.36" arrivalSpeed="12.11" duration="79.00" routeLength="896.19" waitingTime="0.00" waitingCount="0" stopTime="0.00" timeLoss="11.25" rerouteNo="0" devices="tripinfo_south4220_109" vType="type1" speedFactor="0.96" vaporized=""/>
    <tripinfo id="north4219_38" depart="23.00" departLane="620377515_0" departPos="5.10" departSpeed="0.00" departDelay="5.00" arrival="131.00" arrivalLane="620377501#0_1" arrivalPos="20.24" arrivalSpeed="17.91" duration="108.00" routeLength="923.62" waitingTime="43.00" waitingCount="3" stopTime="0.00" timeLoss="67.10" rerouteNo="0" devices="tripinfo_north4219_38" vType="type1" speedFactor="1.10" vaporized=""/>
    <tripinfo id="north4219_54" depart="29.00" departLane="620377515_0" departPos="5.10" departSpeed="0.00" departDelay="4.00" arrival="131.00" arrivalLane="620377501#0_0" arrivalPos="20.24" arrivalSpeed="16.43" duration="102.00" routeLength="923.62" waitingTime="35.00" waitingCount="3" stopTime="0.00" timeLoss="57.32" rerouteNo="0" devices="tripinfo_north4219_54" vType="type1" speedFactor="1.00" vaporized=""/>
    <tripinfo id="north4221_117" depart="57.00" departLane="-620463733_0" departPos="5.10" departSpeed="0.00" departDelay="6.00" arrival="131.00" arrivalLane="28594060#4_0" arrivalPos="123.22" arrivalSpeed="16.04" duration="74.00" routeLength="885.44" waitingTime="7.00" waitingCount="1" stopTime="0.00" timeLoss="22.37" rerouteNo="0" devices="tripinfo_north4221_117" vType="type1" speedFactor="1.00" vaporized=""/>
    <tripinfo id="south4221_122" depart="54.00" departLane="-28594060#4_0" departPos="5.10" departSpeed="0.00" departDelay="0.00" arrival="131.00" arrivalLane="620463733_0" arrivalPos="133.76" arrivalSpeed="16.96" duration="77.00" routeLength="875.34" waitingTime="11.00" waitingCount="1" stopTime="0.00" timeLoss="25.44" rerouteNo="0" devices="tripinfo_south4221_122" vType="type1" speedFactor="1.03" vaporized=""/>
    <tripinfo id="south4220_116" depart="60.00" departLane="gneE10_0" departPos="5.10" departSpeed="0.00" departDelay="9.00" arrival="132.00" arrivalLane="gneE41_0" arrivalPos="453.36" arrivalSpeed="15.46" duration="72.00" routeLength="896.19" waitingTime="0.00" waitingCount="0" stopTime="0.00" timeLoss="16.25" rerouteNo="0" devices="tripinfo_south4220_116" vType="type1" speedFactor="1.18" vaporized=""/>
    <tripinfo id="south4221_130" depart="57.00" departLane="-28594060#4_0" departPos="5.10" departSpeed="0.00" departDelay="0.00" arrival="132.00" arrivalLane="620463733_0" arrivalPos="133.76" arrivalSpeed="17.16" duration="75.00" routeLength="875.34" waitingTime="11.00" waitingCount="1" stopTime="0.00" timeLoss="24.07" rerouteNo="0" devices="tripinfo_south4221_130" vType="type1" speedFactor="1.03" vaporized=""/>
    <tripinfo id="4221n4219s_136" depart="67.00" departLane="-620463733_0" departPos="5.10" departSpeed="0.00" departDelay="7.00" arrival="132.00" arrivalLane="547625725_0" arrivalPos="73.62" arrivalSpeed="17.05" duration="65.00" routeLength="599.97" waitingTime="8.00" waitingCount="2" stopTime="0.00" timeLoss="33.20" rerouteNo="0" devices="tripinfo_4221n4219s_136" vType="type1" speedFactor="1.12" vaporized=""/>
    <tripinfo id="north4219_50" depart="26.00" departLane="620377515_0" departPos="5.10" departSpeed="0.00" departDelay="3.00" arrival="133.00" arrivalLane="620377501#0_0" arrivalPos="20.24" arrivalSpeed="13.40" duration="107.00" routeLength="923.62" waitingTime="30.00" waitingCount="3" stopTime="0.00" timeLoss="55.26" rerouteNo="0" devices="tripinfo_north4219_50" vType="type1" speedFactor="0.85" vaporized=""/>
    <tripinfo id="north4219_77" depart="36.00" departLane="620377515_0" departPos="5.10" departSpeed="0.00" departDelay="0.00" arrival="133.00" arrivalLane="620377501#0_1" arrivalPos="20.24" arrivalSpeed="16.35" duration="97.00" routeLength="923.62" waitingTime="26.00" waitingCount="3" stopTime="0.00" timeLoss="51.24" rerouteNo="0" devices="tripinfo_north4219_77" vType="type1" speedFactor="0.98" vaporized=""/>
    <tripinfo id="4221n4219s_167" depart="79.00" departLane="-620463733_0" departPos="5.10" departSpeed="0.00" departDelay="5.00" arrival="133.00" arrivalLane="547625725_0" arrivalPos="73.62" arrivalSpeed="17.83" duration="54.00" routeLength="599.97" waitingTime="1.00" waitingCount="1" stopTime="0.00" timeLoss="19.88" rerouteNo="0" devices="tripinfo_4221n4219s_167" vType="type1" speedFactor="1.03" vaporized=""/>
    <tripinfo id="north4219_66" depart="32.00" departLane="620377515_0" departPos="5.10" departSpeed="0.00" departDelay="4.00" arrival="135.00" arrivalLane="620377501#0_1" arrivalPos="20.24" arrivalSpeed="14.30" duration="103.00" routeLength="923.62" waitingTime="30.00" waitingCount="3" stopTime="0.00" timeLoss="53.63" rerouteNo="0" devices="tripinfo_north4219_66" vType="type1" speedFactor="0.91" vaporized=""/>
    <tripinfo id="north4219_91" depart="40.00" departLane="620377515_0" departPos="5.10" departSpeed="0.00" departDelay="0.00" arrival="135.00" arrivalLane="620377501#0_2" arrivalPos="20.24" arrivalSpeed="14.74" duration="95.00" routeLength="923.62" waitingTime="17.00" waitingCount="3" stopTime="0.00" timeLoss="45.06" rerouteNo="0" devices="tripinfo_north4219_91" vType="type1" speedFactor="0.89" vaporized=""/>
    <tripinfo id="nw4235_252" depart="111.00" departLane="-628341438#1_0" departPos="5.10" departSpeed="0.00" departDelay="0.00" arrival="135.00" arrivalLane="619523287#1_0" arrivalPos="83.27" arrivalSpeed="15.82" duration="24.00" routeLength="265.87" waitingTime="0.00" waitingCount="0" stopTime="0.00" timeLoss="6.53" rerouteNo="0" devices="tripinfo_nw4235_252" vType="type1" speedFactor="0.99" vaporized=""/>