<?xml version="1.0" encoding="UTF-8"?>

<!-- generated on 08/12/20 20:08:03 by Eclipse SUMO Version 1.5.0
<configuration xmlns:xsi="http://www.w3.org/2001/XMLSchema-instance" xsi:noNamespaceSchemaLocation="http://sumo.dlr.de/xsd/sumoConfiguration.xsd">

    <input>
        <net-file value="../simulation/osm.net.xml"/>
        <route-files value="../simulation/osm.rou.xml"/>
        <additional-files value="../simulation/osm.det.xml"/>
    </input>

    <output>
        <summary-output value="summary.xml"/>
        <tripinfo-output value="tripinfoRL.xml"/>
    </output>

    <time>
        <begin value="0"/>
    </time>

    <processing>
        <no-internal-links value="true"/>
    </processing>

    <report>
        <verbose value="true"/>
        <no-step-log value="true"/>
    </report>

    <traci_server>
        <remote-port value="53929"/>
    </traci_server>

</configuration>
-->

<tripinfos xmlns:xsi="http://www.w3.org/2001/XMLSchema-instance" xsi:noNamespaceSchemaLocation="http://sumo.dlr.de/xsd/tripinfo_file.xsd">
    <tripinfo id="nw4235_0" depart="0.00" departLane="-628341438#1_0" departPos="5.10" departSpeed="0.00" departDelay="0.00" arrival="22.00" arrivalLane="619523287#1_0" arrivalPos="83.27" arrivalSpeed="16.48" duration="22.00" routeLength="265.87" waitingTime="0.00" waitingCount="0" stopTime="0.00" timeLoss="5.53" rerouteNo="0" devices="tripinfo_nw4235_0" vType="type1" speedFactor="1.06" vaporized=""/>
    <tripinfo id="nw4235_10" depart="4.00" departLane="-628341438#1_0" departPos="5.10" departSpeed="0.00" departDelay="0.00" arrival="25.00" arrivalLane="619523287#1_0" arrivalPos="83.27" arrivalSpeed="16.89" duration="21.00" routeLength="265.87" waitingTime="0.00" waitingCount="0" stopTime="0.00" timeLoss="5.56" rerouteNo="0" devices="tripinfo_nw4235_10" vType="type1" speedFactor="1.09" vaporized=""/>
    <tripinfo id="se4235_3" depart="6.00" departLane="619523290#0_0" departPos="5.10" departSpeed="0.00" departDelay="5.00" arrival="44.00" arrivalLane="628341438#1_0" arrivalPos="36.44" arrivalSpeed="14.68" duration="38.00" routeLength="366.85" waitingTime="5.00" waitingCount="1" stopTime="0.00" timeLoss="16.12" rerouteNo="0" devices="tripinfo_se4235_3" vType="type1" speedFactor="1.08" vaporized=""/>
    <tripinfo id="nw4235_41" depart="21.00" departLane="-628341438#1_0" departPos="5.10" departSpeed="0.00" departDelay="0.00" arrival="44.00" arrivalLane="619523287#1_0" arrivalPos="83.27" arrivalSpeed="15.76" duration="23.00" routeLength="265.87" waitingTime="0.00" waitingCount="0" stopTime="0.00" timeLoss="4.71" rerouteNo="0" devices="tripinfo_nw4235_41" vType="type1" speedFactor="0.96" vaporized=""/>
    <tripinfo id="nw4235_52" depart="24.00" departLane="-628341438#1_0" departPos="5.10" departSpeed="0.00" departDelay="0.00" arrival="46.00" arrivalLane="619523287#1_0" arrivalPos="83.27" arrivalSpeed="15.87" duration="22.00" routeLength="265.87" waitingTime="0.00" waitingCount="0" stopTime="0.00" timeLoss="5.18" rerouteNo="0" devices="tripinfo_nw4235_52" vType="type1" speedFactor="1.02" vaporized=""/>
    <tripinfo id="se4235_5" depart="10.00" departLane="619523290#0_0" departPos="5.10" departSpeed="0.00" departDelay="8.00" arrival="47.00" arrivalLane="628341438#1_0" arrivalPos="36.44" arrivalSpeed="11.14" duration="37.00" routeLength="366.85" waitingTime="0.00" waitingCount="0" stopTime="0.00" timeLoss="8.71" rerouteNo="0" devices="tripinfo_se4235_5" vType="type1" speedFactor="0.83" vaporized=""/>
    <tripinfo id="se4235_15" depart="17.00" departLane="619523290#0_0" departPos="5.10" departSpeed="0.00" departDelay="10.00" arrival="49.00" arrivalLane="628341438#1_0" arrivalPos="36.44" arrivalSpeed="11.71" duration="32.00" routeLength="366.85" waitingTime="0.00" waitingCount="0" stopTime="0.00" timeLoss="7.23" rerouteNo="0" devices="tripinfo_se4235_15" vType="type1" speedFactor="0.93" vaporized=""/>
    <tripinfo id="nw4235_65" depart="28.00" departLane="-628341438#1_0" departPos="5.10" departSpeed="0.00" departDelay="0.00" arrival="53.00" arrivalLane="619523287#1_0" arrivalPos="83.27" arrivalSpeed="14.61" duration="25.00" routeLength="265.87" waitingTime="0.00" waitingCount="0" stopTime="0.00" timeLoss="5.41" rerouteNo="0" devices="tripinfo_nw4235_65" vType="type1" speedFactor="0.88" vaporized=""/>
    <tripinfo id="south4219_18" depart="8.00" departLane="620377506_0" departPos="5.10" departSpeed="0.00" departDelay="0.00" arrival="56.00" arrivalLane="547625725_0" arrivalPos="73.62" arrivalSpeed="17.49" duration="48.00" routeLength="475.06" waitingTime="6.00" waitingCount="1" stopTime="0.00" timeLoss="18.69" rerouteNo="0" devices="tripinfo_south4219_18" vType="type1" speedFactor="0.94" vaporized=""/>
    <tripinfo id="se4235_22" depart="27.00" departLane="619523290#0_0" departPos="5.10" departSpeed="0.00" departDelay="16.00" arrival="57.00" arrivalLane="628341438#1_0" arrivalPos="36.44" arrivalSpeed="12.29" duration="30.00" routeLength="366.85" waitingTime="0.00" waitingCount="0" stopTime="0.00" timeLoss="5.91" rerouteNo="0" devices="tripinfo_se4235_22" vType="type1" speedFactor="0.98" vaporized=""/>
    <tripinfo id="4235n4219n_27" depart="13.00" departLane="-628341438#1_0" departPos="5.10" departSpeed="0.00" departDelay="0.00" arrival="57.00" arrivalLane="620377501#0_0" arrivalPos="20.24" arrivalSpeed="15.70" duration="44.00" routeLength="473.89" waitingTime="1.00" waitingCount="1" stopTime="0.00" timeLoss="13.27" rerouteNo="0" devices="tripinfo_4235n4219n_27" vType="type1" speedFactor="0.95" vaporized=""/>
    <tripinfo id="south4219_46" depart="22.00" departLane="620377506_0" departPos="5.10" departSpeed="0.00" departDelay="0.00" arrival="57.00" arrivalLane="547625725_1" arrivalPos="73.62" arrivalSpeed="18.47" duration="35.00" routeLength="475.06" waitingTime="0.00" waitingCount="0" stopTime="0.00" timeLoss="7.54" rerouteNo="0" devices="tripinfo_south4219_46" vType="type1" speedFactor="1.00" vaporized=""/>
    <tripinfo id="north4219_6" depart="2.00" departLane="620377515_0" departPos="5.10" departSpeed="0.00" departDelay="0.00" arrival="64.00" arrivalLane="620377501#0_0" arrivalPos="20.24" arrivalSpeed="16.86" duration="62.00" routeLength="589.74" waitingTime="22.00" waitingCount="1" stopTime="0.00" timeLoss="34.27" rerouteNo="0" devices="tripinfo_north4219_6" vType="type1" speedFactor="1.05" vaporized=""/>
    <tripinfo id="nw4235_93" depart="41.00" departLane="-628341438#1_0" departPos="5.10" departSpeed="0.00" departDelay="0.00" arrival="64.00" arrivalLane="619523287#1_0" arrivalPos="83.27" arrivalSpeed="14.58" duration="23.00" routeLength="265.87" waitingTime="0.00" waitingCount="0" stopTime="0.00" timeLoss="4.40" rerouteNo="0" devices="tripinfo_nw4235_93" vType="type1" speedFactor="0.92" vaporized=""/>
    <tripinfo id="north4219_8" depart="5.00" departLane="620377515_0" departPos="5.10" departSpeed="0.00" departDelay="2.00" arrival="65.00" arrivalLane="620377501#0_1" arrivalPos="20.24" arrivalSpeed="15.42" duration="60.00" routeLength="589.74" waitingTime="17.00" waitingCount="1" stopTime="0.00" timeLoss="29.00" rerouteNo="0" devices="tripinfo_north4219_8" vType="type1" speedFactor="0.94" vaporized=""/>
    <tripinfo id="north4221_19" depart="9.00" departLane="-620463733_0" departPos="5.10" departSpeed="0.00" departDelay="0.00" arrival="65.00" arrivalLane="28594060#4_0" arrivalPos="123.22" arrivalSpeed="18.63" duration="56.00" routeLength="885.44" waitingTime="0.00" waitingCount="0" stopTime="0.00" timeLoss="11.32" rerouteNo="0" devices="tripinfo_north4221_19" vType="type1" speedFactor="1.16" vaporized=""/>
    <tripinfo id="4221n4219s_40" depart="20.00" departLane="-620463733_0" departPos="5.10" departSpeed="0.00" departDelay="0.00" arrival="65.00" arrivalLane="547625725_0" arrivalPos="73.62" arrivalSpeed="19.16" duration="45.00" routeLength="599.34" waitingTime="0.00" waitingCount="0" stopTime="0.00" timeLoss="10.82" rerouteNo="0" devices="tripinfo_4221n4219s_40" vType="type1" speedFactor="1.03" vaporized=""/>
    <tripinfo id="north4221_7" depart="2.00" departLane="-620463733_0" departPos="5.10" departSpeed="0.00" departDelay="0.00" arrival="69.00" arrivalLane="28594060#4_0" arrivalPos="123.22" arrivalSpeed="13.93" duration="67.00" routeLength="885.44" waitingTime="0.00" waitingCount="0" stopTime="0.00" timeLoss="9.21" rerouteNo="0" devices="tripinfo_north4221_7" vType="type1" speedFactor="0.89" vaporized=""/>
    <tripinfo id="south4221_9" depart="3.00" departLane="-28594060#4_0" departPos="5.10" departSpeed="0.00" departDelay="0.00" arrival="70.00" arrivalLane="620463733_0" arrivalPos="133.76" arrivalSpeed="14.20" duration="67.00" routeLength="875.34" waitingTime="0.00" waitingCount="0" stopTime="0.00" timeLoss="5.53" rerouteNo="0" devices="tripinfo_south4221_9" vType="type1" speedFactor="0.86" vaporized=""/>
    <tripinfo id="north4219_28" depart="16.00" departLane="620377515_0" departPos="5.10" departSpeed="0.00" departDelay="1.00" arrival="77.00" arrivalLane="620377501#0_1" arrivalPos="20.24" arrivalSpeed="18.20" duration="61.00" routeLength="589.74" waitingTime="17.00" waitingCount="2" stopTime="0.00" timeLoss="34.63" rerouteNo="0" devices="tripinfo_north4219_28" vType="type1" speedFactor="1.13" vaporized=""/>
    <tripinfo id="north4219_24" depart="13.00" departLane="620377515_0" departPos="5.10" departSpeed="0.00" departDelay="0.00" arrival="78.00" arrivalLane="620377501#0_0" arrivalPos="20.24" arrivalSpeed="13.14" duration="65.00" routeLength="589.74" waitingTime="13.00" waitingCount="2" stopTime="0.00" timeLoss="29.64" rerouteNo="0" devices="tripinfo_north4219_24" vType="type1" speedFactor="0.83" vaporized=""/>
    <tripinfo id="north4221_25" depart="13.00" departLane="-620463733_0" departPos="5.10" departSpeed="0.00" departDelay="0.00" arrival="83.00" arrivalLane="28594060#4_0" arrivalPos="123.22" arrivalSpeed="14.36" duration="70.00" routeLength="885.44" waitingTime="0.00" waitingCount="0" stopTime="0.00" timeLoss="10.37" rerouteNo="0" devices="tripinfo_north4221_25" vType="type1" speedFactor="0.87" vaporized=""/>
    <tripinfo id="nw4235_123" depart="55.00" departLane="-628341438#1_0" departPos="5.10" departSpeed="0.00" departDelay="0.00" arrival="83.00" arrivalLane="619523287#1_0" arrivalPos="83.27" arrivalSpeed="16.00" duration="28.00" routeLength="265.87" waitingTime="0.00" waitingCount="0" stopTime="0.00" timeLoss="11.41" rerouteNo="0" devices="tripinfo_nw4235_123" vType="type1" speedFactor="1.02" vaporized=""/>
    <tripinfo id="nw4235_132" depart="59.00" departLane="-628341438#1_0" departPos="5.10" departSpeed="0.00" departDelay="0.00" arrival="88.00" arrivalLane="619523287#1_0" arrivalPos="83.27" arrivalSpeed="15.69" duration="29.00" routeLength="265.87" waitingTime="0.00" waitingCount="0" stopTime="0.00" timeLoss="11.09" rerouteNo="0" devices="tripinfo_nw4235_132" vType="type1" speedFactor="0.96" vaporized=""/>
    <tripinfo id="north4221_60" depart="31.00" departLane="-620463733_0" departPos="5.10" departSpeed="0.00" departDelay="5.00" arrival="89.00" arrivalLane="28594060#4_0" arrivalPos="123.22" arrivalSpeed="17.96" duration="58.00" routeLength="885.44" waitingTime="0.00" waitingCount="0" stopTime="0.00" timeLoss="10.41" rerouteNo="0" devices="tripinfo_north4221_60" vType="type1" speedFactor="1.08" vaporized=""/>
    <tripinfo id="4235n4221e_13" depart="7.00" departLane="-628341438#1_0" departPos="5.10" departSpeed="0.00" departDelay="2.00" arrival="96.00" arrivalLane="28573015#6_0" arrivalPos="68.82" arrivalSpeed="18.24" duration="89.00" routeLength="943.44" waitingTime="14.00" waitingCount="2" stopTime="0.00" timeLoss="36.92" rerouteNo="0" devices="tripinfo_4235n4221e_13" vType="type1" speedFactor="1.12" vaporized=""/>
    <tripinfo id="north4221_62" depart="34.00" departLane="-620463733_0" departPos="5.10" departSpeed="0.00" departDelay="7.00" arrival="96.00" arrivalLane="28594060#4_0" arrivalPos="123.22" arrivalSpeed="15.68" duration="62.00" routeLength="885.44" waitingTime="0.00" waitingCount="0" stopTime="0.00" timeLoss="11.23" rerouteNo="0" devices="tripinfo_north4221_62" vType="type1" speedFactor="1.02" vaporized=""/>
    <tripinfo id="4219n4235w_31" depart="19.00" departLane="620377515_0" departPos="5.10" departSpeed="0.00" departDelay="3.00" arrival="97.00" arrivalLane="619523287#1_0" arrivalPos="83.27" arrivalSpeed="18.14" duration="78.00" routeLength="845.93" waitingTime="22.00" waitingCount="1" stopTime="0.00" timeLoss="39.70" rerouteNo="0" devices="tripinfo_4219n4235w_31" vType="type1" speedFactor="1.15" vaporized=""/>
    <tripinfo id="4221n4220s_88" depart="46.00" departLane="-620463733_0" departPos="5.10" departSpeed="0.00" departDelay="8.00" arrival="97.00" arrivalLane="gneE41_0" arrivalPos="234.97" arrivalSpeed="12.97" duration="51.00" routeLength="650.13" waitingTime="0.00" waitingCount="0" stopTime="0.00" timeLoss="8.34" rerouteNo="0" devices="tripinfo_4221n4220s_88" vType="type1" speedFactor="1.01" vaporized=""/>
    <tripinfo id="north4221_68" depart="37.00" departLane="-620463733_0" departPos="5.10" departSpeed="0.00" departDelay="6.00" arrival="98.00" arrivalLane="28594060#4_0" arrivalPos="123.22" arrivalSpeed="16.93" duration="61.00" routeLength="885.44" waitingTime="0.00" waitingCount="0" stopTime="0.00" timeLoss="11.27" rerouteNo="0" devices="tripinfo_north4221_68" vType="type1" speedFactor="1.04" vaporized=""/>
    <tripinfo id="4235e4220n_21" depart="24.00" departLane="619523290#0_0" departPos="5.10" departSpeed="0.00" departDelay="14.00" arrival="99.00" arrivalLane="gneE44_0" arrivalPos="140.29" arrivalSpeed="13.51" duration="75.00" routeLength="838.31" waitingTime="7.00" waitingCount="1" stopTime="0.00" timeLoss="22.84" rerouteNo="0" devices="tripinfo_4235e4220n_21" vType="type1" speedFactor="1.01" vaporized=""/>
    <tripinfo id="4219s4235w_58" depart="25.00" departLane="620377506_0" departPos="5.10" departSpeed="0.00" departDelay="0.00" arrival="99.00" arrivalLane="619523287#1_0" arrivalPos="83.27" arrivalSpeed="16.17" duration="74.00" routeLength="784.23" waitingTime="9.00" waitingCount="2" stopTime="0.00" timeLoss="27.69" rerouteNo="0" devices="tripinfo_4219s4235w_58" vType="type1" speedFactor="1.02" vaporized=""/>
    <tripinfo id="4219s4221e_20" depart="11.00" departLane="620377506_0" departPos="5.10" departSpeed="0.00" departDelay="2.00" arrival="100.00" arrivalLane="28573015#6_0" arrivalPos="68.82" arrivalSpeed="16.88" duration="89.00" routeLength="972.76" waitingTime="7.00" waitingCount="2" stopTime="0.00" timeLoss="30.63" rerouteNo="0" devices="tripinfo_4219s4221e_20" vType="type1" speedFactor="1.02" vaporized=""/>
    <tripinfo id="4221n4235w_59" depart="28.00" departLane="-620463733_0" departPos="5.10" departSpeed="0.00" departDelay="3.00" arrival="101.00" arrivalLane="619523287#1_0" arrivalPos="83.27" arrivalSpeed="15.06" duration="73.00" routeLength="902.73" waitingTime="0.00" waitingCount="0" stopTime="0.00" timeLoss="16.65" rerouteNo="0" devices="tripinfo_4221n4235w_59" vType="type1" speedFactor="0.97" vaporized=""/>
    <tripinfo id="se4221_94" depart="41.00" departLane="-28594060#4_0" departPos="5.10" departSpeed="0.00" departDelay="0.00" arrival="102.00" arrivalLane="28573015#6_0" arrivalPos="68.82" arrivalSpeed="17.17" duration="61.00" routeLength="955.26" waitingTime="0.00" waitingCount="0" stopTime="0.00" timeLoss="7.59" rerouteNo="0" devices="tripinfo_se4221_94" vType="type1" speedFactor="1.09" vaporized=""/>
    <tripinfo id="nw4235_166" depart="74.00" departLane="-628341438#1_0" departPos="5.10" departSpeed="0.00" departDelay="0.00" arrival="104.00" arrivalLane="619523287#1_0" arrivalPos="83.27" arrivalSpeed="15.88" duration="30.00" routeLength="265.87" waitingTime="4.00" waitingCount="1" stopTime="0.00" timeLoss="13.26" rerouteNo="0" devices="tripinfo_nw4235_166" vType="type1" speedFactor="1.00" vaporized=""/>
    <tripinfo id="north4221_72" depart="40.00" departLane="-620463733_0" departPos="5.10" departSpeed="0.00" departDelay="8.00" arrival="106.00" arrivalLane="28594060#4_0" arrivalPos="123.22" arrivalSpeed="15.09" duration="66.00" routeLength="885.44" waitingTime="0.00" waitingCount="0" stopTime="0.00" timeLoss="11.70" rerouteNo="0" devices="tripinfo_north4221_72" vType="type1" speedFactor="0.94" vaporized=""/>
    <tripinfo id="se4235_32" depart="40.00" departLane="619523290#0_0" departPos="5.10" departSpeed="0.00" departDelay="23.00" arrival="108.00" arrivalLane="628341438#1_0" arrivalPos="36.44" arrivalSpeed="13.90" duration="68.00" routeLength="366.85" waitingTime="35.00" waitingCount="1" stopTime="0.00" timeLoss="45.31" rerouteNo="0" devices="tripinfo_se4235_32" vType="type1" speedFactor="1.01" vaporized=""/>
    <tripinfo id="nw4235_189" depart="86.00" departLane="-628341438#1_0" departPos="5.10" departSpeed="0.00" departDelay="0.00" arrival="110.00" arrivalLane="619523287#1_0" arrivalPos="83.27" arrivalSpeed="15.01" duration="24.00" routeLength="265.87" waitingTime="0.00" waitingCount="0" stopTime="0.00" timeLoss="5.95" rerouteNo="0" devices="tripinfo_nw4235_189" vType="type1" speedFactor="0.97" vaporized=""/>
    <tripinfo id="se4235_51" depart="69.00" departLane="619523290#0_0" departPos="5.10" departSpeed="0.00" departDelay="45.00" arrival="111.00" arrivalLane="628341438#1_0" arrivalPos="36.44" arrivalSpeed="15.86" duration="42.00" routeLength="366.85" waitingTime="9.00" waitingCount="1" stopTime="0.00" timeLoss="21.99" rerouteNo="0" devices="tripinfo_se4235_51" vType="type1" speedFactor="1.17" vaporized=""/>
    <tripinfo id="4221n4219s_136" depart="67.00" departLane="-620463733_0" departPos="5.10" departSpeed="0.00" departDelay="7.00" arrival="113.00" arrivalLane="547625725_0" arrivalPos="73.62" arrivalSpeed="19.48" duration="46.00" routeLength="599.34" waitingTime="0.00" waitingCount="0" stopTime="0.00" timeLoss="14.18" rerouteNo="0" devices="tripinfo_4221n4219s_136" vType="type1" speedFactor="1.12" vaporized=""/>
    <tripinfo id="nw4235_215" depart="99.00" departLane="-628341438#1_0" departPos="5.10" departSpeed="0.00" departDelay="0.00" arrival="122.00" arrivalLane="619523287#1_0" arrivalPos="83.27" arrivalSpeed="17.96" duration="23.00" routeLength="265.87" waitingTime="0.00" waitingCount="0" stopTime="0.00" timeLoss="7.01" rerouteNo="0" devices="tripinfo_nw4235_215" vType="type1" speedFactor="1.09" vaporized=""/>
    <tripinfo id="north4221_89" depart="49.00" departLane="-620463733_0" departPos="5.10" departSpeed="0.00" departDelay="10.00" arrival="124.00" arrivalLane="28594060#4_1" arrivalPos="123.22" arrivalSpeed="16.45" duration="75.00" routeLength="885.44" waitingTime="8.00" waitingCount="1" stopTime="0.00" timeLoss="24.65" rerouteNo="0" devices="tripinfo_north4221_89" vType="type1" speedFactor="1.02" vaporized=""/>
    <tripinfo id="north4221_85" depart="43.00" departLane="-620463733_0" departPos="5.10" departSpeed="0.00" departDelay="5.00" arrival="125.00" arrivalLane="28594060#4_0" arrivalPos="123.22" arrivalSpeed="15.60" duration="82.00" routeLength="885.44" waitingTime="15.00" waitingCount="1" stopTime="0.00" timeLoss="29.23" rerouteNo="0" devices="tripinfo_north4221_85" vType="type1" speedFactor="0.98" vaporized=""/>
    <tripinfo id="nw4235_218" depart="102.00" departLane="-628341438#1_0" departPos="5.10" departSpeed="0.00" departDelay="2.00" arrival="125.00" arrivalLane="619523287#1_0" arrivalPos="83.27" arrivalSpeed="17.15" duration="23.00" routeLength="265.87" waitingTime="0.00" waitingCount="0" stopTime="0.00" timeLoss="6.67" rerouteNo="0" devices="tripinfo_nw4235_218" vType="type1" speedFactor="1.07" vaporized=""/>
    <tripinfo id="north4221_134" depart="64.00" departLane="-620463733_0" departPos="5.10" departSpeed="0.00" departDelay="5.00" arrival="126.00" arrivalLane="28594060#4_1" arrivalPos="123.22" arrivalSpeed="19.80" duration="62.00" routeLength="885.44" waitingTime="0.00" waitingCount="0" stopTime="0.00" timeLoss="19.02" rerouteNo="0" devices="tripinfo_north4221_134" vType="type1" speedFactor="1.23" vaporized=""/>
    <tripinfo id="north4221_117" depart="58.00" departLane="-620463733_0" departPos="5.10" departSpeed="0.00" departDelay="7.00" arrival="127.00" arrivalLane="28594060#4_0" arrivalPos="123.22" arrivalSpeed="15.59" duration="69.00" routeLength="885.44" waitingTime="3.00" waitingCount="1" stopTime="0.00" timeLoss="17.52" rerouteNo="0" devices="tripinfo_north4221_117" vType="type1" speedFactor="1.00" vaporized=""/>
    <tripinfo id="north4221_111" depart="52.00" departLane="-620463733_0" departPos="5.10" departSpeed="0.00" departDelay="6.00" arrival="132.00" arrivalLane="28594060#4_0" arrivalPos="123.22" arrivalSpeed="13.75" duration="80.00" routeLength="885.44" waitingTime="6.00" waitingCount="1" stopTime="0.00" timeLoss="20.55" rerouteNo="0" devices="tripinfo_north4221_111" vType="type1" speedFactor="0.87" vaporized=""/>
    <tripinfo id="4221n4219s_167" depart="79.00" departLane="-620463733_0" departPos="5.10" departSpeed="0.00" departDelay="5.00" arrival="132.00" arrivalLane="547625725_0" arrivalPos="73.62" arrivalSpeed="21.61" duration="53.00" routeLength="599.34" waitingTime="4.00" waitingCount="1" stopTime="0.00" timeLoss="18.38" rerouteNo="0" devices="tripinfo_4221n4219s_167" vType="type1" speedFactor="1.03" vaporized=""/>
    <tripinfo id="north4221_142" depart="70.00" departLane="-620463733_0" departPos="5.10" departSpeed="0.00" departDelay="7.00" arrival="133.00" arrivalLane="28594060#4_0" arrivalPos="123.22" arrivalSpeed="14.97" duration="63.00" routeLength="885.44" waitingTime="0.00" waitingCount="0" stopTime="0.00" timeLoss="7.53" rerouteNo="0" devices="tripinfo_north4221_142" vType="type1" speedFactor="0.94" vaporized=""/>
    <tripinfo id="4221w4220s_107" depart="44.00" departLane="-28573015#6_0" departPos="5.10" departSpeed="0.00" departDelay="0.00" arrival="134.00" arrivalLane="gneE41_0" arrivalPos="234.97" arrivalSpeed="14.34" duration="90.00" routeLength="736.93" waitingTime="28.00" waitingCount="1" stopTime="0.00" timeLoss="43.51" rerouteNo="0" devices="tripinfo_4221w4220s_107" vType="type1" speedFactor="1.03" vaporized=""/>
    <tripinfo id="nw4235_252" depart="111.00" departLane="-628341438#1_0" departPos="5.10" departSpeed="0.00" departDelay="0.00" arrival="135.00" arrivalLane="619523287#1_0" arrivalPos="83.27" arrivalSpeed="15.25" duration="24.00" routeLength="265.87" waitingTime="0.00" waitingCount="0" stopTime="0.00" timeLoss="6.45" rerouteNo="0" devices="tripinfo_nw4235_252" vType="type1" speedFactor="0.99" vaporized=""/>
    <tripinfo id="north4221_127" depart="61.00" departLane="-620463733_0" departPos="5.10" departSpeed="0.00" departDelay="5.00" arrival="136.00" arrivalLane="28594060#4_0" arrivalPos="123.22" arrivalSpeed="13.40" duration="75.00" routeLength="885.44" waitingTime="0.00" waitingCount="0" stopTime="0.00" timeLoss="12.09" rerouteNo="0" devices="tripinfo_north4221_127" vType="type1" speedFactor="0.82" vaporized=""/>
    <tripinfo id="se4221_153" depart="67.00" departLane="-28594060#4_0" departPos="5.10" departSpeed="0.00" departDelay="0.00" arrival="138.00" arrivalLane="28573015#6_0" arrivalPos="68.82" arrivalSpeed="15.11" duration="71.00" routeLength="955.26" waitingTime="0.00" waitingCount="0" stopTime="0.00" timeLoss="8.42" rerouteNo="0" devices="tripinfo_se4221_153" vType="type1" speedFactor="0.93" vaporized=""/>
    <tripinfo id="south4221_118" depart="51.00" departLane="-28594060#4_0" departPos="5.10" departSpeed="0.00" departDelay="0.00" arrival="139.00" arrivalLane="620463733_0" arrivalPos="133.76" arrivalSpeed="15.75" duration="88.00" routeLength="875.34" waitingTime="23.00" waitingCount="1" stopTime="0.00" timeLoss="34.68" rerouteNo="0" devices="tripinfo_south4221_118" vType="type1" speedFactor="0.99" vaporized=""/>
    <tripinfo id="south4221_122" depart="54.00" departLane="-28594060#4_0" departPos="5.10" departSpeed="0.00" departDelay="0.00" arrival="141.00" arrivalLane="620463733_0" arrivalPos="133.76" arrivalSpeed="16.34" duration="87.00" routeLength="875.34" waitingTime="21.00" waitingCount="1" stopTime="0.00" timeLoss="35.37" rerouteNo="0" devices="tripinfo_south4221_122" vType="type1" speedFactor="1.03" vaporized=""/>
    <tripinfo id="south4221_130" depart="57.00" departLane="-28594060#4_0" departPos="5.10" departSpeed="0.00" departDelay="0.00" arrival="142.00" arrivalLane="620463733_0" arrivalPos="133.76" arrivalSpeed="16.58" duration="85.00" routeLength="875.34" waitingTime="20.00" waitingCount="1" stopTime="0.00" timeLoss="34.03" rerouteNo="0" devices="tripinfo_south4221_130" vType="type1" speedFactor="1.03" vaporized=""/>
    <tripinfo id="4221n4220s_182" depart="91.00" departLane="-620463733_0" departPos="5.10" departSpeed="0.00" departDelay="8.00" arrival="143.00" arrivalLane="gneE41_0" arrivalPos="234.97" arrivalSpeed="13.39" duration="52.00" routeLength="650.13" waitingTime="0.00" waitingCount="0" stopTime="0.00" timeLoss="10.14" rerouteNo="0" devices="tripinfo_4221n4220s_182" vType="type1" speedFactor="1.03" vaporized=""/>
    <tripinfo id="south4221_178" depart="82.00" departLane="-28594060#4_0" departPos="5.10" departSpeed="0.00" departDelay="0.00" arrival="144.00" arrivalLane="620463733_0" arrivalPos="133.76" arrivalSpeed="18.01" duration="62.00" routeLength="875.34" waitingTime="0.00" waitingCount="0" stopTime="0.00" timeLoss="12.97" rerouteNo="0" devices="tripinfo_south4221_178" vType="type1" speedFactor="1.08" vaporized=""/>
    <tripinfo id="south4221_193" depart="88.00" departLane="-28594060#4_0" departPos="5.10" departSpeed="0.00" departDelay="0.00" arrival="146.00" arrivalLane="620463733_0" arrivalPos="133.76" arrivalSpeed="17.45" duration="58.00" routeLength="875.34" waitingTime="0.00" waitingCount="0" stopTime="0.00" timeLoss="7.87" rerouteNo="0" devices="tripinfo_south4221_193" vType="type1" speedFactor="1.07" vaporized=""/>
    <tripinfo id="4221s4220s_159" depart="70.00" departLane="-28594060#4_0" departPos="5.10" departSpeed="0.00" departDelay="0.00" arrival="147.00" arrivalLane="gneE41_0" arrivalPos="234.97" arrivalSpeed="14.85" duration="77.00" routeLength="928.24" waitingTime="11.00" waitingCount="1" stopTime="0.00" timeLoss="25.07" rerouteNo="0" devices="tripinfo_4221s4220s_159" vType="type1" speedFactor="1.14" vaporized=""/>
    <tripinfo id="4235e4220n_80" depart="94.00" departLane="619523290#0_0" departPos="5.10" departSpeed="0.00" departDelay="58.00" arrival="151.00" arrivalLane="gneE44_0" arrivalPos="140.29" arrivalSpeed="13.99" duration="57.00" routeLength="838.31" waitingTime="0.00" waitingCount="0" stopTime="0.00" timeLoss="5.87" rerouteNo="0" devices="tripinfo_4235e4220n_80" vType="type1" speedFactor="1.03" vaporized=""/>
    <tripinfo id="4235e4221n_12" depart="14.00" departLane="619523290#0_0" departPos="5.10" departSpeed="0.00" departDelay="10.00" arrival="156.00" arrivalLane="28594060#4_0" arrivalPos="123.22" arrivalSpeed="16.29" duration="142.00" routeLength="1401.89" waitingTime="34.00" waitingCount="2" stopTime="0.00" timeLoss="60.50" rerouteNo="0" devices="tripinfo_4235e4221n_12" vType="type1" speedFactor="1.05" vaporized=""/>
    <tripinfo id="4235e4221n_4" depart="7.00" departLane="619523290#0_0" departPos="5.10" departSpeed="0.00" departDelay="6.00" arrival="157.00" arrivalLane="28594060#4_1" arrivalPos="123.22" arrivalSpeed="16.13" duration="150.00" routeLength="1401.89" waitingTime="37.00" waitingCount="4" stopTime="0.00" timeLoss="67.39" rerouteNo="0" devices="tripinfo_4235e4221n_4" vType="type1" speedFactor="1.03" vaporized=""/>
    <tripinfo id="4235e4221n_30" depart="37.00" departLane="619523290#0_0" departPos="5.10" departSpeed="0.00" departDelay="21.00" arrival="158.00" arrivalLane="28594060#4_0" arrivalPos="123.22" arrivalSpeed="17.81" duration="121.00" routeLength="1401.89" waitingTime="16.00" waitingCount="1" stopTime="0.00" timeLoss="48.97" rerouteNo="0" devices="tripinfo_4235e4221n_30" vType="type1" speedFactor="1.18" vaporized=""/>
    <tripinfo id="4235e4221n_44" depart="57.00" departLane="619523290#0_0" departPos="5.10" departSpeed="0.00" departDelay="36.00" arrival="160.00" arrivalLane="28594060#4_0" arrivalPos="123.22" arrivalSpeed="17.01" duration="103.00" routeLength="1401.89" waitingTime="2.00" waitingCount="1" stopTime="0.00" timeLoss="21.42" rerouteNo="0" devices="tripinfo_4235e4221n_44" vType="type1" speedFactor="1.04" vaporized=""/>
    <tripinfo id="4221s4220n_82" depart="37.00" departLane="-28594060#4_0" departPos="5.10" departSpeed="0.00" departDelay="0.00" arrival="161.00" arrivalLane="gneE44_0" arrivalPos="140.29" arrivalSpeed="13.82" duration="124.00" routeLength="832.02" waitingTime="56.00" waitingCount="2" stopTime="0.00" timeLoss="73.12" rerouteNo="0" devices="tripinfo_4221s4220n_82" vType="type1" speedFactor="1.02" vaporized=""/>
    <tripinfo id="4235e4221n_23" depart="28.00" departLane="619523290#0_0" departPos="5.10" departSpeed="0.00" departDelay="16.00" arrival="163.00" arrivalLane="28594060#4_0" arrivalPos="123.22" arrivalSpeed="14.15" duration="135.00" routeLength="1401.89" waitingTime="19.00" waitingCount="1" stopTime="0.00" timeLoss="39.73" rerouteNo="0" devices="tripinfo_4235e4221n_23" vType="type1" speedFactor="0.89" vaporized=""/>
    <tripinfo id="4219n4221e_35" depart="22.00" departLane="620377515_0" departPos="5.10" departSpeed="0.00" departDelay="5.00" arrival="164.00" arrivalLane="28573015#6_0" arrivalPos="68.82" arrivalSpeed="16.15" duration="142.00" routeLength="1057.74" waitingTime="66.00" waitingCount="2" stopTime="0.00" timeLoss="85.46" rerouteNo="0" devices="tripinfo_4219n4221e_35" vType="type1" speedFactor="1.02" vaporized=""/>
    <tripinfo id="4219n4221e_69" depart="35.00" departLane="620377515_0" departPos="5.10" departSpeed="0.00" departDelay="4.00" arrival="166.00" arrivalLane="28573015#6_0" arrivalPos="68.82" arrivalSpeed="15.82" duration="131.00" routeLength="1057.74" waitingTime="51.00" waitingCount="2" stopTime="0.00" timeLoss="74.81" rerouteNo="0" devices="tripinfo_4219n4221e_69" vType="type1" speedFactor="1.02" vaporized=""/>