<?xml version="1.0" encoding="UTF-8"?>

<!-- generated on 07/30/20 03:15:35 by Eclipse SUMO Version 1.5.0
<configuration xmlns:xsi="http://www.w3.org/2001/XMLSchema-instance" xsi:noNamespaceSchemaLocation="http://sumo.dlr.de/xsd/sumoConfiguration.xsd">

    <input>
        <net-file value="../simulation/osm.net.xml"/>
        <route-files value="../simulation/osm.rou.xml"/>
        <additional-files value="../simulation/osm.det.xml"/>
    </input>

    <output>
        <summary-output value="summary.xml"/>
        <tripinfo-output value="tripinfoRL.xml"/>
    </output>

    <time>
        <begin value="0"/>
    </time>

    <processing>
        <no-internal-links value="true"/>
    </processing>

    <report>
        <verbose value="true"/>
        <no-step-log value="true"/>
    </report>

    <traci_server>
        <remote-port value="64416"/>
    </traci_server>

</configuration>
-->

<tripinfos xmlns:xsi="http://www.w3.org/2001/XMLSchema-instance" xsi:noNamespaceSchemaLocation="http://sumo.dlr.de/xsd/tripinfo_file.xsd">
    <tripinfo id="nw4235_0" depart="0.00" departLane="-628341438#1_0" departPos="5.10" departSpeed="0.00" departDelay="0.00" arrival="22.00" arrivalLane="619523287#1_0" arrivalPos="83.27" arrivalSpeed="16.48" duration="22.00" routeLength="265.87" waitingTime="0.00" waitingCount="0" stopTime="0.00" timeLoss="5.53" rerouteNo="0" devices="tripinfo_nw4235_0" vType="type1" speedFactor="1.06" vaporized=""/>
    <tripinfo id="nw4235_10" depart="4.00" departLane="-628341438#1_0" departPos="5.10" departSpeed="0.00" departDelay="0.00" arrival="25.00" arrivalLane="619523287#1_0" arrivalPos="83.27" arrivalSpeed="16.89" duration="21.00" routeLength="265.87" waitingTime="0.00" waitingCount="0" stopTime="0.00" timeLoss="5.56" rerouteNo="0" devices="tripinfo_nw4235_10" vType="type1" speedFactor="1.09" vaporized=""/>
    <tripinfo id="south4219_18" depart="8.00" departLane="620377506_0" departPos="5.10" departSpeed="0.00" departDelay="0.00" arrival="43.00" arrivalLane="547625725_0" arrivalPos="73.62" arrivalSpeed="20.30" duration="35.00" routeLength="475.06" waitingTime="0.00" waitingCount="0" stopTime="0.00" timeLoss="5.01" rerouteNo="0" devices="tripinfo_south4219_18" vType="type1" speedFactor="0.94" vaporized=""/>
    <tripinfo id="se4235_3" depart="6.00" departLane="619523290#0_0" departPos="5.10" departSpeed="0.00" departDelay="5.00" arrival="44.00" arrivalLane="628341438#1_0" arrivalPos="36.44" arrivalSpeed="14.68" duration="38.00" routeLength="366.85" waitingTime="5.00" waitingCount="1" stopTime="0.00" timeLoss="16.12" rerouteNo="0" devices="tripinfo_se4235_3" vType="type1" speedFactor="1.08" vaporized=""/>
    <tripinfo id="nw4235_41" depart="21.00" departLane="-628341438#1_0" departPos="5.10" departSpeed="0.00" departDelay="0.00" arrival="44.00" arrivalLane="619523287#1_0" arrivalPos="83.27" arrivalSpeed="15.76" duration="23.00" routeLength="265.87" waitingTime="0.00" waitingCount="0" stopTime="0.00" timeLoss="4.71" rerouteNo="0" devices="tripinfo_nw4235_41" vType="type1" speedFactor="0.96" vaporized=""/>
    <tripinfo id="nw4235_52" depart="24.00" departLane="-628341438#1_0" departPos="5.10" departSpeed="0.00" departDelay="0.00" arrival="46.00" arrivalLane="619523287#1_0" arrivalPos="83.27" arrivalSpeed="15.87" duration="22.00" routeLength="265.87" waitingTime="0.00" waitingCount="0" stopTime="0.00" timeLoss="5.18" rerouteNo="0" devices="tripinfo_nw4235_52" vType="type1" speedFactor="1.02" vaporized=""/>
    <tripinfo id="se4235_5" depart="10.00" departLane="619523290#0_0" departPos="5.10" departSpeed="0.00" departDelay="8.00" arrival="47.00" arrivalLane="628341438#1_0" arrivalPos="36.44" arrivalSpeed="11.14" duration="37.00" routeLength="366.85" waitingTime="0.00" waitingCount="0" stopTime="0.00" timeLoss="8.65" rerouteNo="0" devices="tripinfo_se4235_5" vType="type1" speedFactor="0.83" vaporized=""/>
    <tripinfo id="north4219_6" depart="2.00" departLane="620377515_0" departPos="5.10" departSpeed="0.00" departDelay="0.00" arrival="48.00" arrivalLane="620377501#0_0" arrivalPos="20.24" arrivalSpeed="16.51" duration="46.00" routeLength="589.74" waitingTime="5.00" waitingCount="1" stopTime="0.00" timeLoss="17.54" rerouteNo="0" devices="tripinfo_north4219_6" vType="type1" speedFactor="1.05" vaporized=""/>
    <tripinfo id="north4219_8" depart="5.00" departLane="620377515_0" departPos="5.10" departSpeed="0.00" departDelay="2.00" arrival="48.00" arrivalLane="620377501#0_1" arrivalPos="20.24" arrivalSpeed="14.34" duration="43.00" routeLength="589.74" waitingTime="0.00" waitingCount="0" stopTime="0.00" timeLoss="12.23" rerouteNo="0" devices="tripinfo_north4219_8" vType="type1" speedFactor="0.94" vaporized=""/>
    <tripinfo id="se4235_15" depart="17.00" departLane="619523290#0_0" departPos="5.10" departSpeed="0.00" departDelay="10.00" arrival="49.00" arrivalLane="628341438#1_0" arrivalPos="36.44" arrivalSpeed="11.71" duration="32.00" routeLength="366.85" waitingTime="0.00" waitingCount="0" stopTime="0.00" timeLoss="7.21" rerouteNo="0" devices="tripinfo_se4235_15" vType="type1" speedFactor="0.93" vaporized=""/>
    <tripinfo id="nw4235_65" depart="28.00" departLane="-628341438#1_0" departPos="5.10" departSpeed="0.00" departDelay="0.00" arrival="53.00" arrivalLane="619523287#1_0" arrivalPos="83.27" arrivalSpeed="14.61" duration="25.00" routeLength="265.87" waitingTime="0.00" waitingCount="0" stopTime="0.00" timeLoss="5.71" rerouteNo="0" devices="tripinfo_nw4235_65" vType="type1" speedFactor="0.88" vaporized=""/>
    <tripinfo id="south4219_46" depart="22.00" departLane="620377506_0" departPos="5.10" departSpeed="0.00" departDelay="0.00" arrival="54.00" arrivalLane="547625725_0" arrivalPos="73.62" arrivalSpeed="20.87" duration="32.00" routeLength="475.06" waitingTime="0.00" waitingCount="0" stopTime="0.00" timeLoss="4.51" rerouteNo="0" devices="tripinfo_south4219_46" vType="type1" speedFactor="1.00" vaporized=""/>
    <tripinfo id="se4235_22" depart="27.00" departLane="619523290#0_0" departPos="5.10" departSpeed="0.00" departDelay="16.00" arrival="57.00" arrivalLane="628341438#1_0" arrivalPos="36.44" arrivalSpeed="12.29" duration="30.00" routeLength="366.85" waitingTime="0.00" waitingCount="0" stopTime="0.00" timeLoss="5.96" rerouteNo="0" devices="tripinfo_se4235_22" vType="type1" speedFactor="0.98" vaporized=""/>
    <tripinfo id="north4219_28" depart="16.00" departLane="620377515_0" departPos="5.10" departSpeed="0.00" departDelay="1.00" arrival="60.00" arrivalLane="620377501#0_0" arrivalPos="20.24" arrivalSpeed="18.24" duration="44.00" routeLength="589.74" waitingTime="5.00" waitingCount="1" stopTime="0.00" timeLoss="18.14" rerouteNo="0" devices="tripinfo_north4219_28" vType="type1" speedFactor="1.13" vaporized=""/>
    <tripinfo id="north4219_24" depart="13.00" departLane="620377515_0" departPos="5.10" departSpeed="0.00" departDelay="0.00" arrival="62.00" arrivalLane="620377501#0_0" arrivalPos="20.24" arrivalSpeed="13.72" duration="49.00" routeLength="589.74" waitingTime="3.00" waitingCount="1" stopTime="0.00" timeLoss="13.23" rerouteNo="0" devices="tripinfo_north4219_24" vType="type1" speedFactor="0.83" vaporized=""/>
    <tripinfo id="nw4235_93" depart="41.00" departLane="-628341438#1_0" departPos="5.10" departSpeed="0.00" departDelay="0.00" arrival="64.00" arrivalLane="619523287#1_0" arrivalPos="83.27" arrivalSpeed="14.58" duration="23.00" routeLength="265.87" waitingTime="0.00" waitingCount="0" stopTime="0.00" timeLoss="4.19" rerouteNo="0" devices="tripinfo_nw4235_93" vType="type1" speedFactor="0.92" vaporized=""/>
    <tripinfo id="north4221_19" depart="9.00" departLane="-620463733_0" departPos="5.10" departSpeed="0.00" departDelay="0.00" arrival="65.00" arrivalLane="28594060#4_0" arrivalPos="123.22" arrivalSpeed="18.36" duration="56.00" routeLength="885.44" waitingTime="0.00" waitingCount="0" stopTime="0.00" timeLoss="11.33" rerouteNo="0" devices="tripinfo_north4221_19" vType="type1" speedFactor="1.16" vaporized=""/>
    <tripinfo id="4221n4219s_40" depart="20.00" departLane="-620463733_0" departPos="5.10" departSpeed="0.00" departDelay="0.00" arrival="65.00" arrivalLane="547625725_0" arrivalPos="73.62" arrivalSpeed="18.40" duration="45.00" routeLength="599.34" waitingTime="0.00" waitingCount="0" stopTime="0.00" timeLoss="10.93" rerouteNo="0" devices="tripinfo_4221n4219s_40" vType="type1" speedFactor="1.03" vaporized=""/>
    <tripinfo id="4235n4219n_27" depart="13.00" departLane="-628341438#1_0" departPos="5.10" departSpeed="0.00" departDelay="0.00" arrival="67.00" arrivalLane="620377501#0_0" arrivalPos="20.24" arrivalSpeed="15.67" duration="54.00" routeLength="473.89" waitingTime="8.00" waitingCount="2" stopTime="0.00" timeLoss="23.29" rerouteNo="0" devices="tripinfo_4235n4219n_27" vType="type1" speedFactor="0.95" vaporized=""/>
    <tripinfo id="south4219_74" depart="33.00" departLane="620377506_0" departPos="5.10" departSpeed="0.00" departDelay="0.00" arrival="67.00" arrivalLane="547625725_0" arrivalPos="73.62" arrivalSpeed="21.18" duration="34.00" routeLength="475.06" waitingTime="0.00" waitingCount="0" stopTime="0.00" timeLoss="5.04" rerouteNo="0" devices="tripinfo_south4219_74" vType="type1" speedFactor="0.96" vaporized=""/>
    <tripinfo id="north4221_7" depart="2.00" departLane="-620463733_0" departPos="5.10" departSpeed="0.00" departDelay="0.00" arrival="69.00" arrivalLane="28594060#4_0" arrivalPos="123.22" arrivalSpeed="14.26" duration="67.00" routeLength="885.44" waitingTime="0.00" waitingCount="0" stopTime="0.00" timeLoss="9.12" rerouteNo="0" devices="tripinfo_north4221_7" vType="type1" speedFactor="0.89" vaporized=""/>
    <tripinfo id="south4219_76" depart="36.00" departLane="620377506_0" departPos="5.10" departSpeed="0.00" departDelay="1.00" arrival="69.00" arrivalLane="547625725_0" arrivalPos="73.62" arrivalSpeed="22.34" duration="33.00" routeLength="475.06" waitingTime="0.00" waitingCount="0" stopTime="0.00" timeLoss="5.64" rerouteNo="0" devices="tripinfo_south4219_76" vType="type1" speedFactor="1.03" vaporized=""/>
    <tripinfo id="south4219_84" depart="39.00" departLane="620377506_0" departPos="5.10" departSpeed="0.00" departDelay="1.00" arrival="69.00" arrivalLane="547625725_1" arrivalPos="73.62" arrivalSpeed="24.50" duration="30.00" routeLength="475.06" waitingTime="0.00" waitingCount="0" stopTime="0.00" timeLoss="5.44" rerouteNo="0" devices="tripinfo_south4219_84" vType="type1" speedFactor="1.15" vaporized=""/>
    <tripinfo id="south4221_9" depart="3.00" departLane="-28594060#4_0" departPos="5.10" departSpeed="0.00" departDelay="0.00" arrival="70.00" arrivalLane="620463733_0" arrivalPos="133.76" arrivalSpeed="13.41" duration="67.00" routeLength="875.34" waitingTime="0.00" waitingCount="0" stopTime="0.00" timeLoss="5.61" rerouteNo="0" devices="tripinfo_south4221_9" vType="type1" speedFactor="0.86" vaporized=""/>
    <tripinfo id="north4219_38" depart="23.00" departLane="620377515_0" departPos="5.10" departSpeed="0.00" departDelay="5.00" arrival="73.00" arrivalLane="620377501#0_0" arrivalPos="20.24" arrivalSpeed="17.43" duration="50.00" routeLength="589.74" waitingTime="7.00" waitingCount="1" stopTime="0.00" timeLoss="23.50" rerouteNo="0" devices="tripinfo_north4219_38" vType="type1" speedFactor="1.10" vaporized=""/>
    <tripinfo id="north4219_54" depart="29.00" departLane="620377515_0" departPos="5.10" departSpeed="0.00" departDelay="4.00" arrival="73.00" arrivalLane="620377501#0_1" arrivalPos="20.24" arrivalSpeed="16.22" duration="44.00" routeLength="589.74" waitingTime="2.00" waitingCount="1" stopTime="0.00" timeLoss="14.64" rerouteNo="0" devices="tripinfo_north4219_54" vType="type1" speedFactor="1.00" vaporized=""/>
    <tripinfo id="4221n4219n_37" depart="17.00" departLane="-620463733_0" departPos="5.10" departSpeed="0.00" departDelay="0.00" arrival="81.00" arrivalLane="620377501#0_0" arrivalPos="20.24" arrivalSpeed="18.35" duration="64.00" routeLength="632.61" waitingTime="12.00" waitingCount="1" stopTime="0.00" timeLoss="31.17" rerouteNo="0" devices="tripinfo_4221n4219n_37" vType="type1" speedFactor="1.18" vaporized=""/>
    <tripinfo id="4221n4219n_57" depart="25.00" departLane="-620463733_0" departPos="5.10" departSpeed="0.00" departDelay="0.00" arrival="81.00" arrivalLane="620377501#0_1" arrivalPos="20.24" arrivalSpeed="18.89" duration="56.00" routeLength="632.61" waitingTime="5.00" waitingCount="1" stopTime="0.00" timeLoss="21.92" rerouteNo="0" devices="tripinfo_4221n4219n_57" vType="type1" speedFactor="1.14" vaporized=""/>
    <tripinfo id="north4221_25" depart="13.00" departLane="-620463733_0" departPos="5.10" departSpeed="0.00" departDelay="0.00" arrival="83.00" arrivalLane="28594060#4_0" arrivalPos="123.22" arrivalSpeed="13.31" duration="70.00" routeLength="885.44" waitingTime="0.00" waitingCount="0" stopTime="0.00" timeLoss="10.35" rerouteNo="0" devices="tripinfo_north4221_25" vType="type1" speedFactor="0.87" vaporized=""/>
    <tripinfo id="4219s4235w_58" depart="25.00" departLane="620377506_0" departPos="5.10" departSpeed="0.00" departDelay="0.00" arrival="84.00" arrivalLane="619523287#1_0" arrivalPos="83.27" arrivalSpeed="16.97" duration="59.00" routeLength="784.23" waitingTime="0.00" waitingCount="0" stopTime="0.00" timeLoss="12.48" rerouteNo="0" devices="tripinfo_4219s4235w_58" vType="type1" speedFactor="1.02" vaporized=""/>
    <tripinfo id="4219n4235w_31" depart="19.00" departLane="620377515_0" departPos="5.10" departSpeed="0.00" departDelay="3.00" arrival="85.00" arrivalLane="619523287#1_0" arrivalPos="83.27" arrivalSpeed="18.61" duration="66.00" routeLength="845.93" waitingTime="9.00" waitingCount="1" stopTime="0.00" timeLoss="27.47" rerouteNo="0" devices="tripinfo_4219n4235w_31" vType="type1" speedFactor="1.15" vaporized=""/>
    <tripinfo id="south4219_96" depart="43.00" departLane="620377506_0" departPos="5.10" departSpeed="0.00" departDelay="1.00" arrival="85.00" arrivalLane="547625725_0" arrivalPos="73.62" arrivalSpeed="18.88" duration="42.00" routeLength="475.06" waitingTime="2.00" waitingCount="1" stopTime="0.00" timeLoss="14.18" rerouteNo="0" devices="tripinfo_south4219_96" vType="type1" speedFactor="1.01" vaporized=""/>
    <tripinfo id="north4219_66" depart="32.00" departLane="620377515_0" departPos="5.10" departSpeed="0.00" departDelay="4.00" arrival="87.00" arrivalLane="620377501#0_1" arrivalPos="20.24" arrivalSpeed="14.54" duration="55.00" routeLength="589.74" waitingTime="10.00" waitingCount="1" stopTime="0.00" timeLoss="23.13" rerouteNo="0" devices="tripinfo_north4219_66" vType="type1" speedFactor="0.91" vaporized=""/>
    <tripinfo id="north4219_50" depart="26.00" departLane="620377515_0" departPos="5.10" departSpeed="0.00" departDelay="3.00" arrival="88.00" arrivalLane="620377501#0_0" arrivalPos="20.24" arrivalSpeed="13.60" duration="62.00" routeLength="589.74" waitingTime="14.00" waitingCount="2" stopTime="0.00" timeLoss="27.97" rerouteNo="0" devices="tripinfo_north4219_50" vType="type1" speedFactor="0.85" vaporized=""/>
    <tripinfo id="north4221_60" depart="31.00" departLane="-620463733_0" departPos="5.10" departSpeed="0.00" departDelay="5.00" arrival="89.00" arrivalLane="28594060#4_0" arrivalPos="123.22" arrivalSpeed="17.43" duration="58.00" routeLength="885.44" waitingTime="0.00" waitingCount="0" stopTime="0.00" timeLoss="10.41" rerouteNo="0" devices="tripinfo_north4221_60" vType="type1" speedFactor="1.08" vaporized=""/>
    <tripinfo id="north4219_77" depart="36.00" departLane="620377515_0" departPos="5.10" departSpeed="0.00" departDelay="0.00" arrival="89.00" arrivalLane="620377501#0_2" arrivalPos="20.24" arrivalSpeed="15.07" duration="53.00" routeLength="589.74" waitingTime="9.00" waitingCount="1" stopTime="0.00" timeLoss="22.78" rerouteNo="0" devices="tripinfo_north4219_77" vType="type1" speedFactor="0.98" vaporized=""/>
    <tripinfo id="north4219_91" depart="40.00" departLane="620377515_0" departPos="5.10" departSpeed="0.00" departDelay="0.00" arrival="89.00" arrivalLane="620377501#0_1" arrivalPos="20.24" arrivalSpeed="14.52" duration="49.00" routeLength="589.74" waitingTime="5.00" waitingCount="1" stopTime="0.00" timeLoss="16.46" rerouteNo="0" devices="tripinfo_north4219_91" vType="type1" speedFactor="0.89" vaporized=""/>
    <tripinfo id="se4235_32" depart="40.00" departLane="619523290#0_0" departPos="5.10" departSpeed="0.00" departDelay="23.00" arrival="91.00" arrivalLane="628341438#1_0" arrivalPos="36.44" arrivalSpeed="13.86" duration="51.00" routeLength="366.85" waitingTime="16.00" waitingCount="1" stopTime="0.00" timeLoss="27.48" rerouteNo="0" devices="tripinfo_se4235_32" vType="type1" speedFactor="1.01" vaporized=""/>
    <tripinfo id="north4219_104" depart="44.00" departLane="620377515_0" departPos="5.10" departSpeed="0.00" departDelay="0.00" arrival="91.00" arrivalLane="620377501#0_2" arrivalPos="20.24" arrivalSpeed="13.81" duration="47.00" routeLength="589.74" waitingTime="1.00" waitingCount="1" stopTime="0.00" timeLoss="13.96" rerouteNo="0" devices="tripinfo_north4219_104" vType="type1" speedFactor="0.89" vaporized=""/>
    <tripinfo id="se4235_51" depart="68.00" departLane="619523290#0_0" departPos="5.10" departSpeed="0.00" departDelay="44.00" arrival="94.00" arrivalLane="628341438#1_0" arrivalPos="36.44" arrivalSpeed="15.29" duration="26.00" routeLength="366.85" waitingTime="0.00" waitingCount="0" stopTime="0.00" timeLoss="6.07" rerouteNo="0" devices="tripinfo_se4235_51" vType="type1" speedFactor="1.17" vaporized=""/>
    <tripinfo id="south4219_133" depart="59.00" departLane="620377506_0" departPos="5.10" departSpeed="0.00" departDelay="0.00" arrival="94.00" arrivalLane="547625725_0" arrivalPos="73.62" arrivalSpeed="18.55" duration="35.00" routeLength="475.06" waitingTime="0.00" waitingCount="0" stopTime="0.00" timeLoss="8.59" rerouteNo="0" devices="tripinfo_south4219_133" vType="type1" speedFactor="1.04" vaporized=""/>
    <tripinfo id="north4221_62" depart="34.00" departLane="-620463733_0" departPos="5.10" departSpeed="0.00" departDelay="7.00" arrival="96.00" arrivalLane="28594060#4_0" arrivalPos="123.22" arrivalSpeed="16.43" duration="62.00" routeLength="885.44" waitingTime="0.00" waitingCount="0" stopTime="0.00" timeLoss="11.17" rerouteNo="0" devices="tripinfo_north4221_62" vType="type1" speedFactor="1.02" vaporized=""/>
    <tripinfo id="4221n4220s_88" depart="46.00" departLane="-620463733_0" departPos="5.10" departSpeed="0.00" departDelay="8.00" arrival="97.00" arrivalLane="gneE41_0" arrivalPos="234.97" arrivalSpeed="13.43" duration="51.00" routeLength="650.13" waitingTime="0.00" waitingCount="0" stopTime="0.00" timeLoss="8.64" rerouteNo="0" devices="tripinfo_4221n4220s_88" vType="type1" speedFactor="1.01" vaporized=""/>
    <tripinfo id="4219s4221e_20" depart="11.00" departLane="620377506_0" departPos="5.10" departSpeed="0.00" departDelay="2.00" arrival="98.00" arrivalLane="28573015#6_0" arrivalPos="68.82" arrivalSpeed="16.84" duration="87.00" routeLength="972.76" waitingTime="11.00" waitingCount="1" stopTime="0.00" timeLoss="28.72" rerouteNo="0" devices="tripinfo_4219s4221e_20" vType="type1" speedFactor="1.02" vaporized=""/>
    <tripinfo id="north4221_68" depart="37.00" departLane="-620463733_0" departPos="5.10" departSpeed="0.00" departDelay="6.00" arrival="98.00" arrivalLane="28594060#4_0" arrivalPos="123.22" arrivalSpeed="17.12" duration="61.00" routeLength="885.44" waitingTime="0.00" waitingCount="0" stopTime="0.00" timeLoss="11.41" rerouteNo="0" devices="tripinfo_north4221_68" vType="type1" speedFactor="1.04" vaporized=""/>
    <tripinfo id="4235e4219n_1" depart="0.00" departLane="619523290#0_0" departPos="5.10" departSpeed="0.00" departDelay="0.00" arrival="99.00" arrivalLane="620377501#0_0" arrivalPos="20.24" arrivalSpeed="14.37" duration="99.00" routeLength="724.98" waitingTime="35.00" waitingCount="2" stopTime="0.00" timeLoss="52.53" rerouteNo="0" devices="tripinfo_4235e4219n_1" vType="type1" speedFactor="0.94" vaporized=""/>
    <tripinfo id="4235e4219n_11" depart="11.00" departLane="619523290#0_0" departPos="5.10" departSpeed="0.00" departDelay="7.00" arrival="100.00" arrivalLane="620377501#0_1" arrivalPos="20.24" arrivalSpeed="16.27" duration="89.00" routeLength="724.98" waitingTime="26.00" waitingCount="2" stopTime="0.00" timeLoss="45.89" rerouteNo="0" devices="tripinfo_4235e4219n_11" vType="type1" speedFactor="1.03" vaporized=""/>
    <tripinfo id="4219n4221e_35" depart="22.00" departLane="620377515_0" departPos="5.10" departSpeed="0.00" departDelay="5.00" arrival="100.00" arrivalLane="28573015#6_0" arrivalPos="68.82" arrivalSpeed="16.91" duration="78.00" routeLength="1057.74" waitingTime="4.00" waitingCount="1" stopTime="0.00" timeLoss="20.77" rerouteNo="0" devices="tripinfo_4219n4221e_35" vType="type1" speedFactor="1.02" vaporized=""/>
    <tripinfo id="south4219_150" depart="66.00" departLane="620377506_0" departPos="5.10" departSpeed="0.00" departDelay="0.00" arrival="100.00" arrivalLane="547625725_0" arrivalPos="73.62" arrivalSpeed="20.27" duration="34.00" routeLength="475.06" waitingTime="0.00" waitingCount="0" stopTime="0.00" timeLoss="4.87" rerouteNo="0" devices="tripinfo_south4219_150" vType="type1" speedFactor="0.96" vaporized=""/>
    <tripinfo id="south4219_152" depart="69.00" departLane="620377506_0" departPos="5.10" departSpeed="0.00" departDelay="2.00" arrival="100.00" arrivalLane="547625725_1" arrivalPos="73.62" arrivalSpeed="23.46" duration="31.00" routeLength="475.06" waitingTime="0.00" waitingCount="0" stopTime="0.00" timeLoss="5.42" rerouteNo="0" devices="tripinfo_south4219_152" vType="type1" speedFactor="1.07" vaporized=""/>
    <tripinfo id="4235e4219n_26" depart="31.00" departLane="619523290#0_0" departPos="5.10" departSpeed="0.00" departDelay="18.00" arrival="101.00" arrivalLane="620377501#0_0" arrivalPos="20.24" arrivalSpeed="14.48" duration="70.00" routeLength="724.98" waitingTime="10.00" waitingCount="1" stopTime="0.00" timeLoss="22.32" rerouteNo="0" devices="tripinfo_4235e4219n_26" vType="type1" speedFactor="0.92" vaporized=""/>
    <tripinfo id="4235n4219n_98" depart="44.00" departLane="-628341438#1_0" departPos="5.10" departSpeed="0.00" departDelay="2.00" arrival="101.00" arrivalLane="620377501#0_1" arrivalPos="20.24" arrivalSpeed="17.65" duration="57.00" routeLength="473.89" waitingTime="9.00" waitingCount="2" stopTime="0.00" timeLoss="30.89" rerouteNo="0" devices="tripinfo_4235n4219n_98" vType="type1" speedFactor="1.12" vaporized=""/>
    <tripinfo id="se4221_94" depart="41.00" departLane="-28594060#4_0" departPos="5.10" departSpeed="0.00" departDelay="0.00" arrival="102.00" arrivalLane="28573015#6_0" arrivalPos="68.82" arrivalSpeed="17.17" duration="61.00" routeLength="955.26" waitingTime="0.00" waitingCount="0" stopTime="0.00" timeLoss="7.53" rerouteNo="0" devices="tripinfo_se4221_94" vType="type1" speedFactor="1.09" vaporized=""/>
    <tripinfo id="4235e4219n_29" depart="34.00" departLane="619523290#0_0" departPos="5.10" departSpeed="0.00" departDelay="19.00" arrival="104.00" arrivalLane="620377501#0_0" arrivalPos="20.24" arrivalSpeed="15.26" duration="70.00" routeLength="724.98" waitingTime="10.00" waitingCount="1" stopTime="0.00" timeLoss="22.62" rerouteNo="0" devices="tripinfo_4235e4219n_29" vType="type1" speedFactor="0.93" vaporized=""/>
    <tripinfo id="north4221_72" depart="40.00" departLane="-620463733_0" departPos="5.10" departSpeed="0.00" departDelay="8.00" arrival="106.00" arrivalLane="28594060#4_0" arrivalPos="123.22" arrivalSpeed="14.52" duration="66.00" routeLength="885.44" waitingTime="0.00" waitingCount="0" stopTime="0.00" timeLoss="11.51" rerouteNo="0" devices="tripinfo_north4221_72" vType="type1" speedFactor="0.94" vaporized=""/>
    <tripinfo id="4235e4219n_33" depart="41.00" departLane="619523290#0_0" departPos="5.10" departSpeed="0.00" departDelay="24.00" arrival="107.00" arrivalLane="620377501#0_0" arrivalPos="20.24" arrivalSpeed="19.20" duration="66.00" routeLength="724.98" waitingTime="6.00" waitingCount="1" stopTime="0.00" timeLoss="28.03" rerouteNo="0" devices="tripinfo_4235e4219n_33" vType="type1" speedFactor="1.17" vaporized=""/>
    <tripinfo id="4235e4219n_42" depart="50.00" departLane="619523290#0_0" departPos="5.10" departSpeed="0.00" departDelay="29.00" arrival="108.00" arrivalLane="620377501#0_1" arrivalPos="20.24" arrivalSpeed="17.30" duration="58.00" routeLength="724.98" waitingTime="0.00" waitingCount="0" stopTime="0.00" timeLoss="17.88" rerouteNo="0" devices="tripinfo_4235e4219n_42" vType="type1" speedFactor="1.09" vaporized=""/>
    <tripinfo id="4235e4219s_16" depart="18.00" departLane="619523290#0_0" departPos="5.10" departSpeed="0.00" departDelay="11.00" arrival="109.00" arrivalLane="547625725_1" arrivalPos="73.62" arrivalSpeed="17.19" duration="91.00" routeLength="687.48" waitingTime="33.00" waitingCount="1" stopTime="0.00" timeLoss="45.16" rerouteNo="0" devices="tripinfo_4235e4219s_16" vType="type1" speedFactor="0.88" vaporized=""/>
    <tripinfo id="4235e4219s_2" depart="3.00" departLane="619523290#0_0" departPos="5.10" departSpeed="0.00" departDelay="3.00" arrival="110.00" arrivalLane="547625725_0" arrivalPos="73.62" arrivalSpeed="19.51" duration="107.00" routeLength="687.48" waitingTime="48.00" waitingCount="2" stopTime="0.00" timeLoss="66.48" rerouteNo="0" devices="tripinfo_4235e4219s_2" vType="type1" speedFactor="1.01" vaporized=""/>
    <tripinfo id="4221n4219s_136" depart="67.00" departLane="-620463733_0" departPos="5.10" departSpeed="0.00" departDelay="7.00" arrival="112.00" arrivalLane="547625725_0" arrivalPos="73.62" arrivalSpeed="17.10" duration="45.00" routeLength="599.34" waitingTime="0.00" waitingCount="0" stopTime="0.00" timeLoss="13.62" rerouteNo="0" devices="tripinfo_4221n4219s_136" vType="type1" speedFactor="1.12" vaporized=""/>
    <tripinfo id="south4219_156" depart="72.00" departLane="620377506_0" departPos="5.10" departSpeed="0.00" departDelay="2.00" arrival="115.00" arrivalLane="547625725_0" arrivalPos="73.62" arrivalSpeed="15.76" duration="43.00" routeLength="475.06" waitingTime="5.00" waitingCount="1" stopTime="0.00" timeLoss="19.59" rerouteNo="0" devices="tripinfo_south4219_156" vType="type1" speedFactor="1.18" vaporized=""/>
    <tripinfo id="south4219_173" depart="78.00" departLane="620377506_0" departPos="5.10" departSpeed="0.00" departDelay="0.00" arrival="115.00" arrivalLane="547625725_1" arrivalPos="73.62" arrivalSpeed="17.96" duration="37.00" routeLength="475.06" waitingTime="0.00" waitingCount="0" stopTime="0.00" timeLoss="12.67" rerouteNo="0" devices="tripinfo_south4219_173" vType="type1" speedFactor="1.14" vaporized=""/>
    <tripinfo id="4219s4235w_95" depart="42.00" departLane="620377506_0" departPos="5.10" departSpeed="0.00" departDelay="1.00" arrival="116.00" arrivalLane="619523287#1_0" arrivalPos="83.27" arrivalSpeed="17.16" duration="74.00" routeLength="784.23" waitingTime="16.00" waitingCount="1" stopTime="0.00" timeLoss="28.78" rerouteNo="0" devices="tripinfo_4219s4235w_95" vType="type1" speedFactor="1.06" vaporized=""/>
    <tripinfo id="north4219_172" depart="78.00" departLane="620377515_0" departPos="5.10" departSpeed="0.00" departDelay="0.00" arrival="117.00" arrivalLane="620377501#0_0" arrivalPos="20.24" arrivalSpeed="14.80" duration="39.00" routeLength="589.74" waitingTime="0.00" waitingCount="0" stopTime="0.00" timeLoss="5.82" rerouteNo="0" devices="tripinfo_north4219_172" vType="type1" speedFactor="0.89" vaporized=""/>
    <tripinfo id="4221n4235w_59" depart="28.00" departLane="-620463733_0" departPos="5.10" departSpeed="0.00" departDelay="3.00" arrival="119.00" arrivalLane="619523287#1_0" arrivalPos="83.27" arrivalSpeed="15.31" duration="91.00" routeLength="902.73" waitingTime="14.00" waitingCount="1" stopTime="0.00" timeLoss="34.69" rerouteNo="0" devices="tripinfo_4221n4235w_59" vType="type1" speedFactor="0.97" vaporized=""/>
    <tripinfo id="north4219_168" depart="75.00" departLane="620377515_0" departPos="5.10" departSpeed="0.00" departDelay="0.00" arrival="119.00" arrivalLane="620377501#0_0" arrivalPos="20.24" arrivalSpeed="16.34" duration="44.00" routeLength="589.74" waitingTime="1.00" waitingCount="1" stopTime="0.00" timeLoss="13.72" rerouteNo="0" devices="tripinfo_north4219_168" vType="type1" speedFactor="0.98" vaporized=""/>
    <tripinfo id="north4221_89" depart="49.00" departLane="-620463733_0" departPos="5.10" departSpeed="0.00" departDelay="10.00" arrival="125.00" arrivalLane="28594060#4_0" arrivalPos="123.22" arrivalSpeed="16.24" duration="76.00" routeLength="885.44" waitingTime="9.00" waitingCount="1" stopTime="0.00" timeLoss="25.39" rerouteNo="0" devices="tripinfo_north4221_89" vType="type1" speedFactor="1.02" vaporized=""/>
    <tripinfo id="4235e4219n_39" depart="47.00" departLane="619523290#0_0" departPos="5.10" departSpeed="0.00" departDelay="28.00" arrival="126.00" arrivalLane="620377501#0_0" arrivalPos="20.24" arrivalSpeed="14.74" duration="79.00" routeLength="724.98" waitingTime="12.00" waitingCount="2" stopTime="0.00" timeLoss="29.92" rerouteNo="0" devices="tripinfo_4235e4219n_39" vType="type1" speedFactor="0.90" vaporized=""/>
    <tripinfo id="4235e4219n_47" depart="59.00" departLane="619523290#0_0" departPos="5.10" departSpeed="0.00" departDelay="37.00" arrival="126.00" arrivalLane="620377501#0_1" arrivalPos="20.24" arrivalSpeed="14.80" duration="67.00" routeLength="724.98" waitingTime="6.00" waitingCount="1" stopTime="0.00" timeLoss="18.44" rerouteNo="0" devices="tripinfo_4235e4219n_47" vType="type1" speedFactor="0.90" vaporized=""/>
    <tripinfo id="south4219_210" depart="96.00" departLane="620377506_0" departPos="5.10" departSpeed="0.00" departDelay="0.00" arrival="126.00" arrivalLane="547625725_1" arrivalPos="73.62" arrivalSpeed="23.12" duration="30.00" routeLength="475.06" waitingTime="0.00" waitingCount="0" stopTime="0.00" timeLoss="5.19" rerouteNo="0" devices="tripinfo_south4219_210" vType="type1" speedFactor="1.10" vaporized=""/>